 Entering Gaussian System, Link 0=g09
 Initial command:
 /home/Andriy.Zhugayevych/local/gaussian/g09/l1.exe "/scr/56050.mgmt.skoltech.ru/C4H5N_B3LYPp2/Gau-8749.inp" -scrdir="/scr/56050.mgmt.skoltech.ru/C4H5N_B3LYPp2/"
 Entering Link 1 = /home/Andriy.Zhugayevych/local/gaussian/g09/l1.exe PID=      8750.
  
 Copyright (c) 1988,1990,1992,1993,1995,1998,2003,2009,2013,
            Gaussian, Inc.  All Rights Reserved.
  
 This is part of the Gaussian(R) 09 program.  It is based on
 the Gaussian(R) 03 system (copyright 2003, Gaussian, Inc.),
 the Gaussian(R) 98 system (copyright 1998, Gaussian, Inc.),
 the Gaussian(R) 94 system (copyright 1995, Gaussian, Inc.),
 the Gaussian 92(TM) system (copyright 1992, Gaussian, Inc.),
 the Gaussian 90(TM) system (copyright 1990, Gaussian, Inc.),
 the Gaussian 88(TM) system (copyright 1988, Gaussian, Inc.),
 the Gaussian 86(TM) system (copyright 1986, Carnegie Mellon
 University), and the Gaussian 82(TM) system (copyright 1983,
 Carnegie Mellon University). Gaussian is a federally registered
 trademark of Gaussian, Inc.
  
 This software contains proprietary and confidential information,
 including trade secrets, belonging to Gaussian, Inc.
  
 This software is provided under written license and may be
 used, copied, transmitted, or stored only in accord with that
 written license.
  
 The following legend is applicable only to US Government
 contracts under FAR:
  
                    RESTRICTED RIGHTS LEGEND
  
 Use, reproduction and disclosure by the US Government is
 subject to restrictions as set forth in subparagraphs (a)
 and (c) of the Commercial Computer Software - Restricted
 Rights clause in FAR 52.227-19.
  
 Gaussian, Inc.
 340 Quinnipiac St., Bldg. 40, Wallingford CT 06492
  
  
 ---------------------------------------------------------------
 Warning -- This program may not be used in any manner that
 competes with the business of Gaussian, Inc. or will provide
 assistance to any competitor of Gaussian, Inc.  The licensee
 of this program is prohibited from giving any competitor of
 Gaussian, Inc. access to this program.  By using this program,
 the user acknowledges that Gaussian, Inc. is engaged in the
 business of creating and licensing software in the field of
 computational chemistry and represents and warrants to the
 licensee that it is not a competitor of Gaussian, Inc. and that
 it will not use this program in any manner prohibited above.
 ---------------------------------------------------------------
  

 Cite this work as:
 Gaussian 09, Revision D.01,
 M. J. Frisch, G. W. Trucks, H. B. Schlegel, G. E. Scuseria, 
 M. A. Robb, J. R. Cheeseman, G. Scalmani, V. Barone, B. Mennucci, 
 G. A. Petersson, H. Nakatsuji, M. Caricato, X. Li, H. P. Hratchian, 
 A. F. Izmaylov, J. Bloino, G. Zheng, J. L. Sonnenberg, M. Hada, 
 M. Ehara, K. Toyota, R. Fukuda, J. Hasegawa, M. Ishida, T. Nakajima, 
 Y. Honda, O. Kitao, H. Nakai, T. Vreven, J. A. Montgomery, Jr., 
 J. E. Peralta, F. Ogliaro, M. Bearpark, J. J. Heyd, E. Brothers, 
 K. N. Kudin, V. N. Staroverov, T. Keith, R. Kobayashi, J. Normand, 
 K. Raghavachari, A. Rendell, J. C. Burant, S. S. Iyengar, J. Tomasi, 
 M. Cossi, N. Rega, J. M. Millam, M. Klene, J. E. Knox, J. B. Cross, 
 V. Bakken, C. Adamo, J. Jaramillo, R. Gomperts, R. E. Stratmann, 
 O. Yazyev, A. J. Austin, R. Cammi, C. Pomelli, J. W. Ochterski, 
 R. L. Martin, K. Morokuma, V. G. Zakrzewski, G. A. Voth, 
 P. Salvador, J. J. Dannenberg, S. Dapprich, A. D. Daniels, 
 O. Farkas, J. B. Foresman, J. V. Ortiz, J. Cioslowski, 
 and D. J. Fox, Gaussian, Inc., Wallingford CT, 2013.
 
 ******************************************
 Gaussian 09:  ES64L-G09RevD.01 24-Apr-2013
                14-Sep-2016 
 ******************************************
 %mem=3GB
 %nproc=1
 Will use up to    1 processors via shared memory.
 ------------------
 #T B3LYP 6-31g opt
 ------------------


 Symbolic Z-matrix:
 Charge =  0 Multiplicity = 1
 N                     1.1218    0.        0. 
 C                     0.3341    1.1209    0. 
 C                     0.3341   -1.1209    0. 
 C                    -0.9847    0.7076    0. 
 C                    -0.9847   -0.7076    0. 
 H                     2.1178    0.        0. 
 H                     0.7614    2.1084    0. 
 H                     0.7614   -2.1084    0. 
 H                    -1.8429    1.3566    0. 
 H                    -1.8429   -1.3566    0. 
 

 GradGradGradGradGradGradGradGradGradGradGradGradGradGradGradGradGradGrad
 Initialization pass.
                           ----------------------------
                           !    Initial Parameters    !
                           ! (Angstroms and Degrees)  !
 --------------------------                            --------------------------
 ! Name  Definition              Value          Derivative Info.                !
 --------------------------------------------------------------------------------
 ! R1    R(1,2)                  1.37           estimate D2E/DX2                !
 ! R2    R(1,3)                  1.37           estimate D2E/DX2                !
 ! R3    R(1,6)                  0.996          estimate D2E/DX2                !
 ! R4    R(2,4)                  1.382          estimate D2E/DX2                !
 ! R5    R(2,7)                  1.076          estimate D2E/DX2                !
 ! R6    R(3,5)                  1.382          estimate D2E/DX2                !
 ! R7    R(3,8)                  1.076          estimate D2E/DX2                !
 ! R8    R(4,5)                  1.4152         estimate D2E/DX2                !
 ! R9    R(4,9)                  1.076          estimate D2E/DX2                !
 ! R10   R(5,10)                 1.076          estimate D2E/DX2                !
 ! A1    A(2,1,3)              109.8056         estimate D2E/DX2                !
 ! A2    A(2,1,6)              125.0972         estimate D2E/DX2                !
 ! A3    A(3,1,6)              125.0972         estimate D2E/DX2                !
 ! A4    A(1,2,4)              107.6967         estimate D2E/DX2                !
 ! A5    A(1,2,7)              121.5042         estimate D2E/DX2                !
 ! A6    A(4,2,7)              130.7991         estimate D2E/DX2                !
 ! A7    A(1,3,5)              107.6967         estimate D2E/DX2                !
 ! A8    A(1,3,8)              121.5042         estimate D2E/DX2                !
 ! A9    A(5,3,8)              130.7991         estimate D2E/DX2                !
 ! A10   A(2,4,5)              107.4005         estimate D2E/DX2                !
 ! A11   A(2,4,9)              125.5017         estimate D2E/DX2                !
 ! A12   A(5,4,9)              127.0978         estimate D2E/DX2                !
 ! A13   A(3,5,4)              107.4005         estimate D2E/DX2                !
 ! A14   A(3,5,10)             125.5017         estimate D2E/DX2                !
 ! A15   A(4,5,10)             127.0978         estimate D2E/DX2                !
 ! D1    D(3,1,2,4)              0.0            estimate D2E/DX2                !
 ! D2    D(3,1,2,7)            180.0            estimate D2E/DX2                !
 ! D3    D(6,1,2,4)            180.0            estimate D2E/DX2                !
 ! D4    D(6,1,2,7)              0.0            estimate D2E/DX2                !
 ! D5    D(2,1,3,5)              0.0            estimate D2E/DX2                !
 ! D6    D(2,1,3,8)            180.0            estimate D2E/DX2                !
 ! D7    D(6,1,3,5)            180.0            estimate D2E/DX2                !
 ! D8    D(6,1,3,8)              0.0            estimate D2E/DX2                !
 ! D9    D(1,2,4,5)              0.0            estimate D2E/DX2                !
 ! D10   D(1,2,4,9)            180.0            estimate D2E/DX2                !
 ! D11   D(7,2,4,5)            180.0            estimate D2E/DX2                !
 ! D12   D(7,2,4,9)              0.0            estimate D2E/DX2                !
 ! D13   D(1,3,5,4)              0.0            estimate D2E/DX2                !
 ! D14   D(1,3,5,10)           180.0            estimate D2E/DX2                !
 ! D15   D(8,3,5,4)            180.0            estimate D2E/DX2                !
 ! D16   D(8,3,5,10)             0.0            estimate D2E/DX2                !
 ! D17   D(2,4,5,3)              0.0            estimate D2E/DX2                !
 ! D18   D(2,4,5,10)           180.0            estimate D2E/DX2                !
 ! D19   D(9,4,5,3)            180.0            estimate D2E/DX2                !
 ! D20   D(9,4,5,10)             0.0            estimate D2E/DX2                !
 --------------------------------------------------------------------------------
 Number of steps in this run=     55 maximum allowed number of steps=    100.
 GradGradGradGradGradGradGradGradGradGradGradGradGradGradGradGradGradGrad

                    Distance matrix (angstroms):
                    1          2          3          4          5
     1  N    0.000000
     2  C    1.369996   0.000000
     3  C    1.369996   2.241800   0.000000
     4  C    2.222170   1.382046   2.254472   0.000000
     5  C    2.222170   2.254472   1.382046   1.415200   0.000000
     6  H    0.996000   2.106657   2.106657   3.182170   3.182170
     7  H    2.138981   1.075984   3.257447   2.238550   3.313415
     8  H    2.138981   3.257447   1.075984   3.313415   2.238550
     9  H    3.260339   2.189722   3.298081   1.075969   2.235493
    10  H    3.260339   3.298081   2.189722   2.235493   1.075969
                    6          7          8          9         10
     6  H    0.000000
     7  H    2.507024   0.000000
     8  H    2.507024   4.216800   0.000000
     9  H    4.186587   2.710642   4.334582   0.000000
    10  H    4.186587   4.334582   2.710642   2.713200   0.000000
 Framework group  C2V[C2(NH),SGV(C4H4)]
 Deg. of freedom     9
                         Standard orientation:                         
 ---------------------------------------------------------------------
 Center     Atomic      Atomic             Coordinates (Angstroms)
 Number     Number       Type             X           Y           Z
 ---------------------------------------------------------------------
      1          7           0        0.000000    0.000000    1.121794
      2          6           0        0.000000    1.120900    0.334094
      3          6           0        0.000000   -1.120900    0.334094
      4          6           0        0.000000    0.707600   -0.984706
      5          6           0        0.000000   -0.707600   -0.984706
      6          1           0        0.000000    0.000000    2.117794
      7          1           0        0.000000    2.108400    0.761394
      8          1           0        0.000000   -2.108400    0.761394
      9          1           0        0.000000    1.356600   -1.842906
     10          1           0        0.000000   -1.356600   -1.842906
 ---------------------------------------------------------------------
 Rotational constants (GHZ):      9.2154256      9.0074931      4.5551365
    55 basis functions,   130 primitive gaussians,    55 cartesian basis functions
    18 alpha electrons       18 beta electrons
       nuclear repulsion energy       161.1438694450 Hartrees.
 NAtoms=   10 NActive=   10 NUniq=    6 SFac= 2.78D+00 NAtFMM=   60 NAOKFM=F Big=F
 ExpMin= 1.61D-01 ExpMax= 4.17D+03 ExpMxC= 6.27D+02 IAcc=1 IRadAn=         1 AccDes= 0.00D+00
 Harris functional with IExCor=  402 and IRadAn=       1 diagonalized for initial guess.
 HarFok:  IExCor=  402 AccDes= 0.00D+00 IRadAn=         1 IDoV= 1 UseB2=F ITyADJ=14
 ICtDFT=  3500011 ScaDFX=  1.000000  1.000000  1.000000  1.000000
 FoFCou: FMM=F IPFlag=           0 FMFlag=      100000 FMFlg1=           0
         NFxFlg=           0 DoJE=T BraDBF=F KetDBF=T FulRan=T
         wScrn=  0.000000 ICntrl=     500 IOpCl=  0 I1Cent=   200000004 NGrid=           0
         NMat0=    1 NMatS0=      1 NMatT0=    0 NMatD0=    1 NMtDS0=    0 NMtDT0=    0
 Petite list used in FoFCou.
 Initial guess orbital symmetries:
       Occupied  (A1) (A1) (B2) (B2) (A1) (A1) (A1) (B2) (A1) (B2)
                 (A1) (A1) (B2) (B2) (A1) (B1) (B1) (A2)
       Virtual   (B1) (A2) (A1) (A1) (B2) (A1) (B2) (B2) (A1) (A1)
                 (B2) (B2) (B1) (A1) (B2) (A1) (A2) (A1) (B1) (B2)
                 (A2) (A1) (B1) (B2) (A1) (B2) (A1) (B2) (B2) (A1)
                 (A1) (B2) (A1) (B2) (A1) (B2) (A1)
 The electronic state of the initial guess is 1-A1.
 Integral accuracy reduced to 1.0D-05 until final iterations.
 Initial convergence to 1.0D-05 achieved.  Increase integral accuracy.
 SCF Done:  E(RB3LYP) =  -210.113308450     A.U. after   13 cycles
            NFock= 13  Conv=0.76D-08     -V/T= 2.0050

 **********************************************************************

            Population analysis using the SCF density.

 **********************************************************************

 Orbital symmetries:
       Occupied  (A1) (B2) (A1) (A1) (B2) (A1) (A1) (B2) (A1) (B2)
                 (A1) (A1) (B2) (B1) (B2) (A1) (B1) (A2)
       Virtual   (B1) (A1) (A2) (A1) (B2) (A1) (B2) (B2) (A1) (A1)
                 (B2) (B2) (B1) (A1) (A1) (A2) (B2) (B1) (A1) (B2)
                 (A2) (A1) (B1) (B2) (A1) (B2) (A1) (B2) (B2) (A1)
                 (A1) (B2) (A1) (B2) (A1) (B2) (A1)
 The electronic state is 1-A1.
 Alpha  occ. eigenvalues --  -14.36947 -10.19494 -10.19491 -10.15681 -10.15643
 Alpha  occ. eigenvalues --   -0.97737  -0.77007  -0.71649  -0.58987  -0.56061
 Alpha  occ. eigenvalues --   -0.54008  -0.42786  -0.41983  -0.39978  -0.38276
 Alpha  occ. eigenvalues --   -0.37007  -0.23627  -0.20336
 Alpha virt. eigenvalues --    0.04965   0.08170   0.09818   0.14301   0.16536
 Alpha virt. eigenvalues --    0.17326   0.18552   0.24541   0.24674   0.34402
 Alpha virt. eigenvalues --    0.37605   0.45714   0.55891   0.58130   0.61326
 Alpha virt. eigenvalues --    0.61499   0.63175   0.63992   0.65123   0.66246
 Alpha virt. eigenvalues --    0.69534   0.70607   0.77662   0.86139   0.87629
 Alpha virt. eigenvalues --    0.88259   0.90231   0.94876   0.95695   0.98426
 Alpha virt. eigenvalues --    1.03607   1.16313   1.23523   1.32753   1.35292
 Alpha virt. eigenvalues --    1.55067   1.67574
          Condensed to atoms (all electrons):
 Mulliken charges:
               1
     1  N   -0.655474
     2  C    0.081823
     3  C    0.081823
     4  C   -0.174546
     5  C   -0.174546
     6  H    0.317577
     7  H    0.141985
     8  H    0.141985
     9  H    0.119686
    10  H    0.119686
 Sum of Mulliken charges =   0.00000
 Mulliken charges with hydrogens summed into heavy atoms:
               1
     1  N   -0.337897
     2  C    0.223808
     3  C    0.223808
     4  C   -0.054860
     5  C   -0.054860
 Electronic spatial extent (au):  <R**2>=            304.1747
 Charge=              0.0000 electrons
 Dipole moment (field-independent basis, Debye):
    X=              0.0000    Y=              0.0000    Z=              1.9477  Tot=              1.9477
 Calling FoFJK, ICntrl=      2127 FMM=F ISym2X=1 I1Cent= 0 IOpClX= 0 NMat=1 NMatS=1 NMatT=0.

 GradGradGradGradGradGradGradGradGradGradGradGradGradGradGradGradGradGrad
 FormGI is forming the generalized inverse of G from B-inverse, IUseBI=4.
 Internal  Forces:  Max     0.014164376 RMS     0.004034189
 Step number   1 out of a maximum of   55
 All quantities printed in internal units (Hartrees-Bohrs-Radians)
 Mixed Optimization -- RFO/linear search
 Second derivative matrix not updated -- first step.
 ITU=  0
     Eigenvalues ---    0.02032   0.02089   0.02097   0.02134   0.02195
     Eigenvalues ---    0.02226   0.02247   0.16000   0.16000   0.16000
     Eigenvalues ---    0.16000   0.16000   0.22000   0.22000   0.36484
     Eigenvalues ---    0.36484   0.36486   0.36486   0.39969   0.42973
     Eigenvalues ---    0.47568   0.48399   0.49279   0.50482
 Linear search not attempted -- first point.
 Iteration  1 RMS(Cart)=  0.01148114 RMS(Int)=  0.00001577
 Iteration  2 RMS(Cart)=  0.00001907 RMS(Int)=  0.00000100
 Iteration  3 RMS(Cart)=  0.00000000 RMS(Int)=  0.00000100
 ClnCor:  largest displacement from symmetrization is 5.41D-12 for atom     6.
 Variable       Old X    -DE/DX   Delta X   Delta X   Delta X     New X
                                 (Linear)    (Quad)   (Total)
    R1        2.58892   0.01416   0.00000   0.02863   0.02863   2.61755
    R2        2.58892   0.01416   0.00000   0.02863   0.02863   2.61755
    R3        1.88217   0.00953   0.00000   0.01964   0.01964   1.90180
    R4        2.61169   0.00360   0.00000   0.00702   0.00702   2.61870
    R5        2.03332   0.00155   0.00000   0.00423   0.00423   2.03755
    R6        2.61169   0.00360   0.00000   0.00702   0.00702   2.61870
    R7        2.03332   0.00155   0.00000   0.00423   0.00423   2.03755
    R8        2.67434   0.01339   0.00000   0.02955   0.02955   2.70389
    R9        2.03329   0.00257   0.00000   0.00700   0.00700   2.04029
   R10        2.03329   0.00257   0.00000   0.00700   0.00700   2.04029
    A1        1.91647   0.00014   0.00000   0.00445   0.00444   1.92091
    A2        2.18336  -0.00007   0.00000  -0.00222  -0.00222   2.18114
    A3        2.18336  -0.00007   0.00000  -0.00222  -0.00222   2.18114
    A4        1.87966  -0.00164   0.00000  -0.00618  -0.00618   1.87348
    A5        2.12065   0.00116   0.00000   0.00519   0.00519   2.12584
    A6        2.28287   0.00048   0.00000   0.00099   0.00099   2.28386
    A7        1.87966  -0.00164   0.00000  -0.00618  -0.00618   1.87348
    A8        2.12065   0.00116   0.00000   0.00519   0.00519   2.12584
    A9        2.28287   0.00048   0.00000   0.00099   0.00099   2.28386
   A10        1.87449   0.00157   0.00000   0.00396   0.00396   1.87845
   A11        2.19042  -0.00029   0.00000   0.00107   0.00107   2.19149
   A12        2.21828  -0.00128   0.00000  -0.00503  -0.00503   2.21324
   A13        1.87449   0.00157   0.00000   0.00396   0.00396   1.87845
   A14        2.19042  -0.00029   0.00000   0.00107   0.00107   2.19149
   A15        2.21828  -0.00128   0.00000  -0.00503  -0.00503   2.21324
    D1        0.00000   0.00000   0.00000   0.00000   0.00000   0.00000
    D2        3.14159   0.00000   0.00000   0.00000   0.00000   3.14159
    D3        3.14159   0.00000   0.00000   0.00000   0.00000   3.14159
    D4        0.00000   0.00000   0.00000   0.00000   0.00000   0.00000
    D5        0.00000   0.00000   0.00000   0.00000   0.00000   0.00000
    D6        3.14159   0.00000   0.00000   0.00000   0.00000   3.14159
    D7        3.14159   0.00000   0.00000   0.00000   0.00000   3.14159
    D8        0.00000   0.00000   0.00000   0.00000   0.00000   0.00000
    D9        0.00000   0.00000   0.00000   0.00000   0.00000   0.00000
   D10        3.14159   0.00000   0.00000   0.00000   0.00000   3.14159
   D11        3.14159   0.00000   0.00000   0.00000   0.00000   3.14159
   D12        0.00000   0.00000   0.00000   0.00000   0.00000   0.00000
   D13        0.00000   0.00000   0.00000   0.00000   0.00000   0.00000
   D14        3.14159   0.00000   0.00000   0.00000   0.00000   3.14159
   D15        3.14159   0.00000   0.00000   0.00000   0.00000   3.14159
   D16        0.00000   0.00000   0.00000   0.00000   0.00000   0.00000
   D17        0.00000   0.00000   0.00000   0.00000   0.00000   0.00000
   D18        3.14159   0.00000   0.00000   0.00000   0.00000   3.14159
   D19        3.14159   0.00000   0.00000   0.00000   0.00000   3.14159
   D20        0.00000   0.00000   0.00000   0.00000   0.00000   0.00000
         Item               Value     Threshold  Converged?
 Maximum Force            0.014164     0.000450     NO 
 RMS     Force            0.004034     0.000300     NO 
 Maximum Displacement     0.033041     0.001800     NO 
 RMS     Displacement     0.011479     0.001200     NO 
 GradGradGradGradGradGradGradGradGradGradGradGradGradGradGradGradGradGrad

                    Distance matrix (angstroms):
                    1          2          3          4          5
     1  N    0.000000
     2  C    1.385146   0.000000
     3  C    1.385146   2.270124   0.000000
     4  C    2.232328   1.385759   2.273435   0.000000
     5  C    2.232328   2.273435   1.385759   1.430838   0.000000
     6  H    1.006391   2.128235   2.128235   3.201923   3.201923
     7  H    2.157611   1.078223   3.288557   2.244486   3.334863
     8  H    2.157611   3.288557   1.078223   3.334863   2.244486
     9  H    3.275724   2.196898   3.318374   1.079675   2.250377
    10  H    3.275724   3.318374   2.196898   2.250377   1.079675
                    6          7          8          9         10
     6  H    0.000000
     7  H    2.531820   0.000000
     8  H    2.531820   4.251770   0.000000
     9  H    4.211803   2.719746   4.356778   0.000000
    10  H    4.211803   4.356778   2.719746   2.724628   0.000000
 Framework group  C2V[C2(NH),SGV(C4H4)]
 Deg. of freedom     9
                         Standard orientation:                         
 ---------------------------------------------------------------------
 Center     Atomic      Atomic             Coordinates (Angstroms)
 Number     Number       Type             X           Y           Z
 ---------------------------------------------------------------------
      1          7           0        0.000000    0.000000    1.127517
      2          6           0        0.000000    1.135062    0.333625
      3          6           0        0.000000   -1.135062    0.333625
      4          6           0        0.000000    0.715419   -0.987067
      5          6           0        0.000000   -0.715419   -0.987067
      6          1           0        0.000000    0.000000    2.133909
      7          1           0        0.000000    2.125885    0.758872
      8          1           0        0.000000   -2.125885    0.758872
      9          1           0        0.000000    1.362314   -1.851488
     10          1           0        0.000000   -1.362314   -1.851488
 ---------------------------------------------------------------------
 Rotational constants (GHZ):      9.0157869      8.9421986      4.4894210
    55 basis functions,   130 primitive gaussians,    55 cartesian basis functions
    18 alpha electrons       18 beta electrons
       nuclear repulsion energy       159.9872617586 Hartrees.
 NAtoms=   10 NActive=   10 NUniq=    6 SFac= 2.78D+00 NAtFMM=   60 NAOKFM=F Big=F
 Initial guess from the checkpoint file:  "/scr/56050.mgmt.skoltech.ru/C4H5N_B3LYPp2/Gau-8750.chk"
 B after Tr=     0.000000    0.000000    0.000000
         Rot=    1.000000    0.000000    0.000000    0.000000 Ang=   0.00 deg.
 Initial guess orbital symmetries:
       Occupied  (A1) (B2) (A1) (A1) (B2) (A1) (A1) (B2) (A1) (B2)
                 (A1) (A1) (B2) (B1) (B2) (A1) (B1) (A2)
       Virtual   (A1) (A1) (A1) (A1) (A1) (A1) (A1) (A1) (A1) (A1)
                 (A1) (A1) (A1) (A1) (A1) (A1) (A2) (A2) (A2) (B1)
                 (B1) (B1) (B1) (B2) (B2) (B2) (B2) (B2) (B2) (B2)
                 (B2) (B2) (B2) (B2) (B2) (B2) (B2)
 ExpMin= 1.61D-01 ExpMax= 4.17D+03 ExpMxC= 6.27D+02 IAcc=1 IRadAn=         1 AccDes= 0.00D+00
 Harris functional with IExCor=  402 and IRadAn=       1 diagonalized for initial guess.
 HarFok:  IExCor=  402 AccDes= 0.00D+00 IRadAn=         1 IDoV= 1 UseB2=F ITyADJ=14
 ICtDFT=  3500011 ScaDFX=  1.000000  1.000000  1.000000  1.000000
 FoFCou: FMM=F IPFlag=           0 FMFlag=      100000 FMFlg1=           0
         NFxFlg=           0 DoJE=T BraDBF=F KetDBF=T FulRan=T
         wScrn=  0.000000 ICntrl=     500 IOpCl=  0 I1Cent=   200000004 NGrid=           0
         NMat0=    1 NMatS0=      1 NMatT0=    0 NMatD0=    1 NMtDS0=    0 NMtDT0=    0
 Petite list used in FoFCou.
 Integral accuracy reduced to 1.0D-05 until final iterations.
 Initial convergence to 1.0D-05 achieved.  Increase integral accuracy.
 SCF Done:  E(RB3LYP) =  -210.114058161     A.U. after   12 cycles
            NFock= 12  Conv=0.40D-08     -V/T= 2.0058
 Calling FoFJK, ICntrl=      2127 FMM=F ISym2X=1 I1Cent= 0 IOpClX= 0 NMat=1 NMatS=1 NMatT=0.

 GradGradGradGradGradGradGradGradGradGradGradGradGradGradGradGradGradGrad
 Using GEDIIS/GDIIS optimizer.
 FormGI is forming the generalized inverse of G from B-inverse, IUseBI=4.
 Internal  Forces:  Max     0.001884915 RMS     0.000602957
 Step number   2 out of a maximum of   55
 All quantities printed in internal units (Hartrees-Bohrs-Radians)
 Mixed Optimization -- En-DIIS/RFO-DIIS
 Trust test= 9.63D-01 RLast= 5.81D-02 DXMaxT set to 3.00D-01
 ITU=  1  0
 Use linear search instead of GDIIS.
     Eigenvalues ---    0.02032   0.02089   0.02097   0.02132   0.02195
     Eigenvalues ---    0.02226   0.02247   0.15829   0.16000   0.16000
     Eigenvalues ---    0.16000   0.16054   0.22000   0.22575   0.36435
     Eigenvalues ---    0.36484   0.36486   0.36612   0.40398   0.43102
     Eigenvalues ---    0.43171   0.48475   0.50486   0.53823
 Quartic linear search produced a step of -0.02093.
 Iteration  1 RMS(Cart)=  0.00212641 RMS(Int)=  0.00000361
 Iteration  2 RMS(Cart)=  0.00000419 RMS(Int)=  0.00000162
 Iteration  3 RMS(Cart)=  0.00000000 RMS(Int)=  0.00000162
 ClnCor:  largest displacement from symmetrization is 8.47D-12 for atom     6.
 Variable       Old X    -DE/DX   Delta X   Delta X   Delta X     New X
                                 (Linear)    (Quad)   (Total)
    R1        2.61755   0.00058  -0.00060   0.00291   0.00232   2.61986
    R2        2.61755   0.00058  -0.00060   0.00291   0.00232   2.61986
    R3        1.90180  -0.00017  -0.00041   0.00074   0.00033   1.90213
    R4        2.61870  -0.00188  -0.00015  -0.00348  -0.00363   2.61507
    R5        2.03755  -0.00027  -0.00009  -0.00050  -0.00059   2.03696
    R6        2.61870  -0.00188  -0.00015  -0.00348  -0.00363   2.61507
    R7        2.03755  -0.00027  -0.00009  -0.00050  -0.00059   2.03696
    R8        2.70389  -0.00024  -0.00062   0.00076   0.00014   2.70403
    R9        2.04029  -0.00007  -0.00015   0.00020   0.00005   2.04034
   R10        2.04029  -0.00007  -0.00015   0.00020   0.00005   2.04034
    A1        1.92091  -0.00167  -0.00009  -0.00630  -0.00639   1.91452
    A2        2.18114   0.00084   0.00005   0.00315   0.00319   2.18433
    A3        2.18114   0.00084   0.00005   0.00315   0.00319   2.18433
    A4        1.87348   0.00087   0.00013   0.00382   0.00395   1.87743
    A5        2.12584  -0.00088  -0.00011  -0.00453  -0.00464   2.12121
    A6        2.28386   0.00001  -0.00002   0.00071   0.00069   2.28455
    A7        1.87348   0.00087   0.00013   0.00382   0.00395   1.87743
    A8        2.12584  -0.00088  -0.00011  -0.00453  -0.00464   2.12121
    A9        2.28386   0.00001  -0.00002   0.00071   0.00069   2.28455
   A10        1.87845  -0.00003  -0.00008  -0.00067  -0.00075   1.87770
   A11        2.19149   0.00053  -0.00002   0.00366   0.00364   2.19513
   A12        2.21324  -0.00050   0.00011  -0.00300  -0.00289   2.21036
   A13        1.87845  -0.00003  -0.00008  -0.00067  -0.00075   1.87770
   A14        2.19149   0.00053  -0.00002   0.00366   0.00364   2.19513
   A15        2.21324  -0.00050   0.00011  -0.00300  -0.00289   2.21036
    D1        0.00000   0.00000   0.00000   0.00000   0.00000   0.00000
    D2        3.14159   0.00000   0.00000   0.00000   0.00000   3.14159
    D3        3.14159   0.00000   0.00000   0.00000   0.00000   3.14159
    D4        0.00000   0.00000   0.00000   0.00000   0.00000   0.00000
    D5        0.00000   0.00000   0.00000   0.00000   0.00000   0.00000
    D6        3.14159   0.00000   0.00000   0.00000   0.00000   3.14159
    D7        3.14159   0.00000   0.00000   0.00000   0.00000   3.14159
    D8        0.00000   0.00000   0.00000   0.00000   0.00000   0.00000
    D9        0.00000   0.00000   0.00000   0.00000   0.00000   0.00000
   D10        3.14159   0.00000   0.00000   0.00000   0.00000   3.14159
   D11        3.14159   0.00000   0.00000   0.00000   0.00000   3.14159
   D12        0.00000   0.00000   0.00000   0.00000   0.00000   0.00000
   D13        0.00000   0.00000   0.00000   0.00000   0.00000   0.00000
   D14        3.14159   0.00000   0.00000   0.00000   0.00000   3.14159
   D15        3.14159   0.00000   0.00000   0.00000   0.00000   3.14159
   D16        0.00000   0.00000   0.00000   0.00000   0.00000   0.00000
   D17        0.00000   0.00000   0.00000   0.00000   0.00000   0.00000
   D18        3.14159   0.00000   0.00000   0.00000   0.00000   3.14159
   D19        3.14159   0.00000   0.00000   0.00000   0.00000   3.14159
   D20        0.00000   0.00000   0.00000   0.00000   0.00000   0.00000
         Item               Value     Threshold  Converged?
 Maximum Force            0.001885     0.000450     NO 
 RMS     Force            0.000603     0.000300     NO 
 Maximum Displacement     0.005910     0.001800     NO 
 RMS     Displacement     0.002127     0.001200     NO 
 GradGradGradGradGradGradGradGradGradGradGradGradGradGradGradGradGradGrad

                    Distance matrix (angstroms):
                    1          2          3          4          5
     1  N    0.000000
     2  C    1.386372   0.000000
     3  C    1.386372   2.267045   0.000000
     4  C    2.235001   1.383836   2.271330   0.000000
     5  C    2.235001   2.271330   1.383836   1.430910   0.000000
     6  H    1.006566   2.131225   2.131225   3.204839   3.204839
     7  H    2.155726   1.077912   3.284781   2.242767   3.332704
     8  H    2.155726   3.284781   1.077912   3.332704   2.242767
     9  H    3.278980   2.197172   3.315618   1.079701   2.248876
    10  H    3.278980   3.315618   2.197172   2.248876   1.079701
                    6          7          8          9         10
     6  H    0.000000
     7  H    2.531510   0.000000
     8  H    2.531510   4.246891   0.000000
     9  H    4.215621   2.721356   4.353870   0.000000
    10  H    4.215621   4.353870   2.721356   2.719732   0.000000
 Framework group  C2V[C2(NH),SGV(C4H4)]
 Deg. of freedom     9
                         Standard orientation:                         
 ---------------------------------------------------------------------
 Center     Atomic      Atomic             Coordinates (Angstroms)
 Number     Number       Type             X           Y           Z
 ---------------------------------------------------------------------
      1          7           0        0.000000    0.000000    1.130320
      2          6           0        0.000000    1.133523    0.332101
      3          6           0        0.000000   -1.133523    0.332101
      4          6           0        0.000000    0.715455   -0.987074
      5          6           0        0.000000   -0.715455   -0.987074
      6          1           0        0.000000    0.000000    2.136885
      7          1           0        0.000000    2.123445    0.758654
      8          1           0        0.000000   -2.123445    0.758654
      9          1           0        0.000000    1.359866   -1.853381
     10          1           0        0.000000   -1.359866   -1.853381
 ---------------------------------------------------------------------
 Rotational constants (GHZ):      9.0346281      8.9278431      4.4904591
    55 basis functions,   130 primitive gaussians,    55 cartesian basis functions
    18 alpha electrons       18 beta electrons
       nuclear repulsion energy       160.0042003775 Hartrees.
 NAtoms=   10 NActive=   10 NUniq=    6 SFac= 2.78D+00 NAtFMM=   60 NAOKFM=F Big=F
 Initial guess from the checkpoint file:  "/scr/56050.mgmt.skoltech.ru/C4H5N_B3LYPp2/Gau-8750.chk"
 B after Tr=     0.000000    0.000000    0.000000
         Rot=    1.000000    0.000000    0.000000    0.000000 Ang=   0.00 deg.
 Initial guess orbital symmetries:
       Occupied  (A1) (B2) (A1) (A1) (B2) (A1) (A1) (B2) (A1) (B2)
                 (A1) (A1) (B2) (B1) (B2) (A1) (B1) (A2)
       Virtual   (A1) (A1) (A1) (A1) (A1) (A1) (A1) (A1) (A1) (A1)
                 (A1) (A1) (A1) (A1) (A1) (A1) (A2) (A2) (A2) (B1)
                 (B1) (B1) (B1) (B2) (B2) (B2) (B2) (B2) (B2) (B2)
                 (B2) (B2) (B2) (B2) (B2) (B2) (B2)
 SCF Done:  E(RB3LYP) =  -210.114088085     A.U. after    9 cycles
            NFock=  9  Conv=0.13D-08     -V/T= 2.0057
 Calling FoFJK, ICntrl=      2127 FMM=F ISym2X=1 I1Cent= 0 IOpClX= 0 NMat=1 NMatS=1 NMatT=0.

 GradGradGradGradGradGradGradGradGradGradGradGradGradGradGradGradGradGrad
 Using GEDIIS/GDIIS optimizer.
 FormGI is forming the generalized inverse of G from B-inverse, IUseBI=4.
 Internal  Forces:  Max     0.000917645 RMS     0.000241665
 Step number   3 out of a maximum of   55
 All quantities printed in internal units (Hartrees-Bohrs-Radians)
 Mixed Optimization -- En-DIIS/RFO-DIIS
 Swapping is turned off.
 Trust test= 1.10D+00 RLast= 1.48D-02 DXMaxT set to 3.00D-01
 ITU=  1  1  0
     Eigenvalues ---    0.02033   0.02089   0.02098   0.02133   0.02196
     Eigenvalues ---    0.02226   0.02248   0.13501   0.16000   0.16000
     Eigenvalues ---    0.16000   0.16007   0.22000   0.27102   0.36077
     Eigenvalues ---    0.36484   0.36486   0.36565   0.36916   0.42932
     Eigenvalues ---    0.43083   0.49284   0.50482   0.51972
 En-DIIS/RFO-DIIS IScMMF=        0 using points:     3    2
 RFO step:  Lambda=-4.52923431D-06.
 DidBck=F Rises=F RFO-DIIS coefs:    1.10778   -0.10778
 Iteration  1 RMS(Cart)=  0.00079960 RMS(Int)=  0.00000071
 Iteration  2 RMS(Cart)=  0.00000070 RMS(Int)=  0.00000006
 ClnCor:  largest displacement from symmetrization is 8.19D-12 for atom     7.
 Variable       Old X    -DE/DX   Delta X   Delta X   Delta X     New X
                                 (Linear)    (Quad)   (Total)
    R1        2.61986   0.00012   0.00025   0.00062   0.00087   2.62074
    R2        2.61986   0.00012   0.00025   0.00062   0.00087   2.62074
    R3        1.90213  -0.00052   0.00004  -0.00103  -0.00099   1.90114
    R4        2.61507  -0.00092  -0.00039  -0.00219  -0.00258   2.61249
    R5        2.03696   0.00006  -0.00006   0.00020   0.00013   2.03709
    R6        2.61507  -0.00092  -0.00039  -0.00219  -0.00258   2.61249
    R7        2.03696   0.00006  -0.00006   0.00020   0.00013   2.03709
    R8        2.70403   0.00043   0.00001   0.00130   0.00131   2.70534
    R9        2.04034  -0.00013   0.00001  -0.00032  -0.00032   2.04002
   R10        2.04034  -0.00013   0.00001  -0.00032  -0.00032   2.04002
    A1        1.91452   0.00021  -0.00069   0.00099   0.00031   1.91483
    A2        2.18433  -0.00010   0.00034  -0.00050  -0.00015   2.18418
    A3        2.18433  -0.00010   0.00034  -0.00050  -0.00015   2.18418
    A4        1.87743  -0.00023   0.00043  -0.00101  -0.00058   1.87684
    A5        2.12121  -0.00001  -0.00050  -0.00046  -0.00096   2.12025
    A6        2.28455   0.00024   0.00007   0.00146   0.00154   2.28609
    A7        1.87743  -0.00023   0.00043  -0.00101  -0.00058   1.87684
    A8        2.12121  -0.00001  -0.00050  -0.00046  -0.00096   2.12025
    A9        2.28455   0.00024   0.00007   0.00146   0.00154   2.28609
   A10        1.87770   0.00013  -0.00008   0.00051   0.00043   1.87813
   A11        2.19513   0.00008   0.00039   0.00090   0.00130   2.19643
   A12        2.21036  -0.00021  -0.00031  -0.00142  -0.00173   2.20863
   A13        1.87770   0.00013  -0.00008   0.00051   0.00043   1.87813
   A14        2.19513   0.00008   0.00039   0.00090   0.00130   2.19643
   A15        2.21036  -0.00021  -0.00031  -0.00142  -0.00173   2.20863
    D1        0.00000   0.00000   0.00000   0.00000   0.00000   0.00000
    D2        3.14159   0.00000   0.00000   0.00000   0.00000   3.14159
    D3        3.14159   0.00000   0.00000   0.00000   0.00000   3.14159
    D4        0.00000   0.00000   0.00000   0.00000   0.00000   0.00000
    D5        0.00000   0.00000   0.00000   0.00000   0.00000   0.00000
    D6        3.14159   0.00000   0.00000   0.00000   0.00000   3.14159
    D7        3.14159   0.00000   0.00000   0.00000   0.00000   3.14159
    D8        0.00000   0.00000   0.00000   0.00000   0.00000   0.00000
    D9        0.00000   0.00000   0.00000   0.00000   0.00000   0.00000
   D10        3.14159   0.00000   0.00000   0.00000   0.00000   3.14159
   D11        3.14159   0.00000   0.00000   0.00000   0.00000   3.14159
   D12        0.00000   0.00000   0.00000   0.00000   0.00000   0.00000
   D13        0.00000   0.00000   0.00000   0.00000   0.00000   0.00000
   D14        3.14159   0.00000   0.00000   0.00000   0.00000   3.14159
   D15        3.14159   0.00000   0.00000   0.00000   0.00000   3.14159
   D16        0.00000   0.00000   0.00000   0.00000   0.00000   0.00000
   D17        0.00000   0.00000   0.00000   0.00000   0.00000   0.00000
   D18        3.14159   0.00000   0.00000   0.00000   0.00000   3.14159
   D19        3.14159   0.00000   0.00000   0.00000   0.00000   3.14159
   D20        0.00000   0.00000   0.00000   0.00000   0.00000   0.00000
         Item               Value     Threshold  Converged?
 Maximum Force            0.000918     0.000450     NO 
 RMS     Force            0.000242     0.000300     YES
 Maximum Displacement     0.002364     0.001800     NO 
 RMS     Displacement     0.000800     0.001200     YES
 GradGradGradGradGradGradGradGradGradGradGradGradGradGradGradGradGradGrad

                    Distance matrix (angstroms):
                    1          2          3          4          5
     1  N    0.000000
     2  C    1.386834   0.000000
     3  C    1.386834   2.268046   0.000000
     4  C    2.233795   1.382470   2.271159   0.000000
     5  C    2.233795   2.271159   1.382470   1.431603   0.000000
     6  H    1.006041   2.131125   2.131125   3.203051   3.203051
     7  H    2.155639   1.077983   3.285515   2.242329   3.332891
     8  H    2.155639   3.285515   1.077983   3.332891   2.242329
     9  H    3.278085   2.196489   3.314720   1.079533   2.248418
    10  H    3.278085   3.314720   2.196489   2.248418   1.079533
                    6          7          8          9         10
     6  H    0.000000
     7  H    2.530739   0.000000
     8  H    2.530739   4.247075   0.000000
     9  H    4.214330   2.722329   4.353315   0.000000
    10  H    4.214330   4.353315   2.722329   2.717230   0.000000
 Framework group  C2V[C2(NH),SGV(C4H4)]
 Deg. of freedom     9
                         Standard orientation:                         
 ---------------------------------------------------------------------
 Center     Atomic      Atomic             Coordinates (Angstroms)
 Number     Number       Type             X           Y           Z
 ---------------------------------------------------------------------
      1          7           0        0.000000    0.000000    1.129821
      2          6           0        0.000000    1.134023    0.331510
      3          6           0        0.000000   -1.134023    0.331510
      4          6           0        0.000000    0.715801   -0.986182
      5          6           0        0.000000   -0.715801   -0.986182
      6          1           0        0.000000    0.000000    2.135863
      7          1           0        0.000000    2.123537    0.759189
      8          1           0        0.000000   -2.123537    0.759189
      9          1           0        0.000000    1.358615   -1.853466
     10          1           0        0.000000   -1.358615   -1.853466
 ---------------------------------------------------------------------
 Rotational constants (GHZ):      9.0292882      8.9388252      4.4919145
    55 basis functions,   130 primitive gaussians,    55 cartesian basis functions
    18 alpha electrons       18 beta electrons
       nuclear repulsion energy       160.0292908586 Hartrees.
 NAtoms=   10 NActive=   10 NUniq=    6 SFac= 2.78D+00 NAtFMM=   60 NAOKFM=F Big=F
 Initial guess from the checkpoint file:  "/scr/56050.mgmt.skoltech.ru/C4H5N_B3LYPp2/Gau-8750.chk"
 B after Tr=     0.000000    0.000000    0.000000
         Rot=    1.000000    0.000000    0.000000    0.000000 Ang=   0.00 deg.
 Initial guess orbital symmetries:
       Occupied  (A1) (B2) (A1) (A1) (B2) (A1) (A1) (B2) (A1) (B2)
                 (A1) (A1) (B2) (B1) (B2) (A1) (B1) (A2)
       Virtual   (A1) (A1) (A1) (A1) (A1) (A1) (A1) (A1) (A1) (A1)
                 (A1) (A1) (A1) (A1) (A1) (A1) (A2) (A2) (A2) (B1)
                 (B1) (B1) (B1) (B2) (B2) (B2) (B2) (B2) (B2) (B2)
                 (B2) (B2) (B2) (B2) (B2) (B2) (B2)
 SCF Done:  E(RB3LYP) =  -210.114091843     A.U. after    8 cycles
            NFock=  8  Conv=0.68D-08     -V/T= 2.0057
 Calling FoFJK, ICntrl=      2127 FMM=F ISym2X=1 I1Cent= 0 IOpClX= 0 NMat=1 NMatS=1 NMatT=0.

 GradGradGradGradGradGradGradGradGradGradGradGradGradGradGradGradGradGrad
 Using GEDIIS/GDIIS optimizer.
 FormGI is forming the generalized inverse of G from B-inverse, IUseBI=4.
 Internal  Forces:  Max     0.000219477 RMS     0.000056181
 Step number   4 out of a maximum of   55
 All quantities printed in internal units (Hartrees-Bohrs-Radians)
 Mixed Optimization -- En-DIIS/RFO-DIIS
 Swapping is turned off.
 Trust test= 9.06D-01 RLast= 5.91D-03 DXMaxT set to 3.00D-01
 ITU=  1  1  1  0
     Eigenvalues ---    0.02033   0.02089   0.02098   0.02133   0.02196
     Eigenvalues ---    0.02226   0.02248   0.11732   0.16000   0.16000
     Eigenvalues ---    0.16000   0.16011   0.22000   0.26929   0.36484
     Eigenvalues ---    0.36486   0.36538   0.36698   0.41976   0.43088
     Eigenvalues ---    0.44050   0.48863   0.50482   0.54653
 En-DIIS/RFO-DIIS IScMMF=        0 using points:     4    3    2
 RFO step:  Lambda=-2.15017901D-07.
 DidBck=F Rises=F RFO-DIIS coefs:    0.90358    0.11233   -0.01591
 Iteration  1 RMS(Cart)=  0.00022499 RMS(Int)=  0.00000004
 Iteration  2 RMS(Cart)=  0.00000002 RMS(Int)=  0.00000003
 ClnCor:  largest displacement from symmetrization is 8.06D-12 for atom     6.
 Variable       Old X    -DE/DX   Delta X   Delta X   Delta X     New X
                                 (Linear)    (Quad)   (Total)
    R1        2.62074  -0.00006  -0.00005  -0.00009  -0.00013   2.62060
    R2        2.62074  -0.00006  -0.00005  -0.00009  -0.00013   2.62060
    R3        1.90114  -0.00004   0.00010  -0.00021  -0.00011   1.90104
    R4        2.61249   0.00022   0.00019   0.00019   0.00038   2.61287
    R5        2.03709   0.00001  -0.00002   0.00004   0.00002   2.03711
    R6        2.61249   0.00022   0.00019   0.00019   0.00038   2.61287
    R7        2.03709   0.00001  -0.00002   0.00004   0.00002   2.03711
    R8        2.70534   0.00005  -0.00012   0.00030   0.00017   2.70551
    R9        2.04002   0.00000   0.00003  -0.00004  -0.00001   2.04001
   R10        2.04002   0.00000   0.00003  -0.00004  -0.00001   2.04001
    A1        1.91483   0.00000  -0.00013   0.00011  -0.00002   1.91481
    A2        2.18418   0.00000   0.00007  -0.00006   0.00001   2.18419
    A3        2.18418   0.00000   0.00007  -0.00006   0.00001   2.18419
    A4        1.87684   0.00005   0.00012   0.00002   0.00014   1.87698
    A5        2.12025  -0.00006   0.00002  -0.00029  -0.00027   2.11998
    A6        2.28609   0.00001  -0.00014   0.00027   0.00013   2.28623
    A7        1.87684   0.00005   0.00012   0.00002   0.00014   1.87698
    A8        2.12025  -0.00006   0.00002  -0.00029  -0.00027   2.11998
    A9        2.28609   0.00001  -0.00014   0.00027   0.00013   2.28623
   A10        1.87813  -0.00006  -0.00005  -0.00008  -0.00013   1.87800
   A11        2.19643   0.00008  -0.00007   0.00044   0.00037   2.19680
   A12        2.20863  -0.00003   0.00012  -0.00037  -0.00025   2.20838
   A13        1.87813  -0.00006  -0.00005  -0.00008  -0.00013   1.87800
   A14        2.19643   0.00008  -0.00007   0.00044   0.00037   2.19680
   A15        2.20863  -0.00003   0.00012  -0.00037  -0.00025   2.20838
    D1        0.00000   0.00000   0.00000   0.00000   0.00000   0.00000
    D2        3.14159   0.00000   0.00000   0.00000   0.00000   3.14159
    D3        3.14159   0.00000   0.00000   0.00000   0.00000   3.14159
    D4        0.00000   0.00000   0.00000   0.00000   0.00000   0.00000
    D5        0.00000   0.00000   0.00000   0.00000   0.00000   0.00000
    D6        3.14159   0.00000   0.00000   0.00000   0.00000   3.14159
    D7        3.14159   0.00000   0.00000   0.00000   0.00000   3.14159
    D8        0.00000   0.00000   0.00000   0.00000   0.00000   0.00000
    D9        0.00000   0.00000   0.00000   0.00000   0.00000   0.00000
   D10        3.14159   0.00000   0.00000   0.00000   0.00000   3.14159
   D11        3.14159   0.00000   0.00000   0.00000   0.00000   3.14159
   D12        0.00000   0.00000   0.00000   0.00000   0.00000   0.00000
   D13        0.00000   0.00000   0.00000   0.00000   0.00000   0.00000
   D14        3.14159   0.00000   0.00000   0.00000   0.00000   3.14159
   D15        3.14159   0.00000   0.00000   0.00000   0.00000   3.14159
   D16        0.00000   0.00000   0.00000   0.00000   0.00000   0.00000
   D17        0.00000   0.00000   0.00000   0.00000   0.00000   0.00000
   D18        3.14159   0.00000   0.00000   0.00000   0.00000   3.14159
   D19        3.14159   0.00000   0.00000   0.00000   0.00000   3.14159
   D20        0.00000   0.00000   0.00000   0.00000   0.00000   0.00000
         Item               Value     Threshold  Converged?
 Maximum Force            0.000219     0.000450     YES
 RMS     Force            0.000056     0.000300     YES
 Maximum Displacement     0.000667     0.001800     YES
 RMS     Displacement     0.000225     0.001200     YES
 Optimization completed.
    -- Stationary point found.
                           ----------------------------
                           !   Optimized Parameters   !
                           ! (Angstroms and Degrees)  !
 --------------------------                            --------------------------
 ! Name  Definition              Value          Derivative Info.                !
 --------------------------------------------------------------------------------
 ! R1    R(1,2)                  1.3868         -DE/DX =   -0.0001              !
 ! R2    R(1,3)                  1.3868         -DE/DX =   -0.0001              !
 ! R3    R(1,6)                  1.006          -DE/DX =    0.0                 !
 ! R4    R(2,4)                  1.3825         -DE/DX =    0.0002              !
 ! R5    R(2,7)                  1.078          -DE/DX =    0.0                 !
 ! R6    R(3,5)                  1.3825         -DE/DX =    0.0002              !
 ! R7    R(3,8)                  1.078          -DE/DX =    0.0                 !
 ! R8    R(4,5)                  1.4316         -DE/DX =    0.0001              !
 ! R9    R(4,9)                  1.0795         -DE/DX =    0.0                 !
 ! R10   R(5,10)                 1.0795         -DE/DX =    0.0                 !
 ! A1    A(2,1,3)              109.7117         -DE/DX =    0.0                 !
 ! A2    A(2,1,6)              125.1442         -DE/DX =    0.0                 !
 ! A3    A(3,1,6)              125.1442         -DE/DX =    0.0                 !
 ! A4    A(1,2,4)              107.5353         -DE/DX =    0.0001              !
 ! A5    A(1,2,7)              121.4813         -DE/DX =   -0.0001              !
 ! A6    A(4,2,7)              130.9834         -DE/DX =    0.0                 !
 ! A7    A(1,3,5)              107.5353         -DE/DX =    0.0001              !
 ! A8    A(1,3,8)              121.4813         -DE/DX =   -0.0001              !
 ! A9    A(5,3,8)              130.9834         -DE/DX =    0.0                 !
 ! A10   A(2,4,5)              107.6089         -DE/DX =   -0.0001              !
 ! A11   A(2,4,9)              125.846          -DE/DX =    0.0001              !
 ! A12   A(5,4,9)              126.5451         -DE/DX =    0.0                 !
 ! A13   A(3,5,4)              107.6089         -DE/DX =   -0.0001              !
 ! A14   A(3,5,10)             125.846          -DE/DX =    0.0001              !
 ! A15   A(4,5,10)             126.5451         -DE/DX =    0.0                 !
 ! D1    D(3,1,2,4)              0.0            -DE/DX =    0.0                 !
 ! D2    D(3,1,2,7)            180.0            -DE/DX =    0.0                 !
 ! D3    D(6,1,2,4)            180.0            -DE/DX =    0.0                 !
 ! D4    D(6,1,2,7)              0.0            -DE/DX =    0.0                 !
 ! D5    D(2,1,3,5)              0.0            -DE/DX =    0.0                 !
 ! D6    D(2,1,3,8)            180.0            -DE/DX =    0.0                 !
 ! D7    D(6,1,3,5)            180.0            -DE/DX =    0.0                 !
 ! D8    D(6,1,3,8)              0.0            -DE/DX =    0.0                 !
 ! D9    D(1,2,4,5)              0.0            -DE/DX =    0.0                 !
 ! D10   D(1,2,4,9)            180.0            -DE/DX =    0.0                 !
 ! D11   D(7,2,4,5)            180.0            -DE/DX =    0.0                 !
 ! D12   D(7,2,4,9)              0.0            -DE/DX =    0.0                 !
 ! D13   D(1,3,5,4)              0.0            -DE/DX =    0.0                 !
 ! D14   D(1,3,5,10)           180.0            -DE/DX =    0.0                 !
 ! D15   D(8,3,5,4)            180.0            -DE/DX =    0.0                 !
 ! D16   D(8,3,5,10)             0.0            -DE/DX =    0.0                 !
 ! D17   D(2,4,5,3)              0.0            -DE/DX =    0.0                 !
 ! D18   D(2,4,5,10)           180.0            -DE/DX =    0.0                 !
 ! D19   D(9,4,5,3)            180.0            -DE/DX =    0.0                 !
 ! D20   D(9,4,5,10)             0.0            -DE/DX =    0.0                 !
 --------------------------------------------------------------------------------
 GradGradGradGradGradGradGradGradGradGradGradGradGradGradGradGradGradGrad

                    Distance matrix (angstroms):
                    1          2          3          4          5
     1  N    0.000000
     2  C    1.386834   0.000000
     3  C    1.386834   2.268046   0.000000
     4  C    2.233795   1.382470   2.271159   0.000000
     5  C    2.233795   2.271159   1.382470   1.431603   0.000000
     6  H    1.006041   2.131125   2.131125   3.203051   3.203051
     7  H    2.155639   1.077983   3.285515   2.242329   3.332891
     8  H    2.155639   3.285515   1.077983   3.332891   2.242329
     9  H    3.278085   2.196489   3.314720   1.079533   2.248418
    10  H    3.278085   3.314720   2.196489   2.248418   1.079533
                    6          7          8          9         10
     6  H    0.000000
     7  H    2.530739   0.000000
     8  H    2.530739   4.247075   0.000000
     9  H    4.214330   2.722329   4.353315   0.000000
    10  H    4.214330   4.353315   2.722329   2.717230   0.000000
 Framework group  C2V[C2(NH),SGV(C4H4)]
 Deg. of freedom     9
                         Standard orientation:                         
 ---------------------------------------------------------------------
 Center     Atomic      Atomic             Coordinates (Angstroms)
 Number     Number       Type             X           Y           Z
 ---------------------------------------------------------------------
      1          7           0        0.000000    0.000000    1.129821
      2          6           0        0.000000    1.134023    0.331510
      3          6           0        0.000000   -1.134023    0.331510
      4          6           0        0.000000    0.715801   -0.986182
      5          6           0        0.000000   -0.715801   -0.986182
      6          1           0        0.000000    0.000000    2.135863
      7          1           0        0.000000    2.123537    0.759189
      8          1           0        0.000000   -2.123537    0.759189
      9          1           0        0.000000    1.358615   -1.853466
     10          1           0        0.000000   -1.358615   -1.853466
 ---------------------------------------------------------------------
 Rotational constants (GHZ):      9.0292882      8.9388252      4.4919145

 **********************************************************************

            Population analysis using the SCF density.

 **********************************************************************

 Orbital symmetries:
       Occupied  (A1) (B2) (A1) (A1) (B2) (A1) (A1) (B2) (A1) (B2)
                 (A1) (A1) (B2) (B1) (B2) (A1) (B1) (A2)
       Virtual   (B1) (A1) (A2) (A1) (B2) (A1) (B2) (B2) (A1) (A1)
                 (B2) (B2) (B1) (A1) (A1) (A2) (B2) (B1) (A1) (B2)
                 (A2) (A1) (B1) (B2) (A1) (B2) (A1) (B2) (B2) (A1)
                 (A1) (B2) (A1) (B2) (A1) (B2) (A1)
 The electronic state is 1-A1.
 Alpha  occ. eigenvalues --  -14.36958 -10.19780 -10.19777 -10.15966 -10.15933
 Alpha  occ. eigenvalues --   -0.96756  -0.76590  -0.71480  -0.58527  -0.55814
 Alpha  occ. eigenvalues --   -0.53938  -0.42587  -0.41909  -0.39427  -0.38457
 Alpha  occ. eigenvalues --   -0.36860  -0.23426  -0.20491
 Alpha virt. eigenvalues --    0.04649   0.08035   0.09543   0.14058   0.16357
 Alpha virt. eigenvalues --    0.17075   0.18347   0.23652   0.24314   0.34337
 Alpha virt. eigenvalues --    0.37627   0.44660   0.55928   0.57756   0.60597
 Alpha virt. eigenvalues --    0.61485   0.62318   0.64092   0.65161   0.66225
 Alpha virt. eigenvalues --    0.69385   0.70120   0.77663   0.86238   0.87691
 Alpha virt. eigenvalues --    0.87707   0.89631   0.94253   0.95333   0.98199
 Alpha virt. eigenvalues --    1.03689   1.15799   1.23322   1.32146   1.34867
 Alpha virt. eigenvalues --    1.54547   1.66986
          Condensed to atoms (all electrons):
 Mulliken charges:
               1
     1  N   -0.662947
     2  C    0.083278
     3  C    0.083278
     4  C   -0.174737
     5  C   -0.174737
     6  H    0.318000
     7  H    0.143255
     8  H    0.143255
     9  H    0.120678
    10  H    0.120678
 Sum of Mulliken charges =   0.00000
 Mulliken charges with hydrogens summed into heavy atoms:
               1
     1  N   -0.344947
     2  C    0.226533
     3  C    0.226533
     4  C   -0.054059
     5  C   -0.054059
 Electronic spatial extent (au):  <R**2>=            307.4464
 Charge=              0.0000 electrons
 Dipole moment (field-independent basis, Debye):
    X=              0.0000    Y=              0.0000    Z=              1.8972  Tot=              1.8972
 1\1\GINC-NODE16\FOpt\RB3LYP\6-31G\C4H5N1\ROOT\14-Sep-2016\0\\#T B3LYP 
 6-31g opt\\\0,1\N,1.1305829387,0.,0.\C,0.3322718178,1.1340232421,0.\C,
 0.3322718178,-1.1340232421,0.\C,-0.9854203894,0.7158014295,0.\C,-0.985
 4203894,-0.7158014294,0.\H,2.1366240324,0.,0.\H,0.7599500481,2.1235373
 038,0.\H,0.7599500481,-2.1235373038,0.\H,-1.852704962,1.3586147511,0.\
 H,-1.852704962,-1.3586147511,0.\\Version=ES64L-G09RevD.01\State=1-A1\H
 F=-210.1140918\RMSD=6.805e-09\RMSF=8.038e-05\Dipole=0.7464061,0.,0.\Qu
 adrupole=3.2002748,0.9217044,-4.1219791,0.,0.,0.\PG=C02V [C2(N1H1),SGV
 (C4H4)]\\@


 It takes a long time to grow an old friend.
                            -- John Leonard
 Job cpu time:       0 days  0 hours  0 minutes  9.6 seconds.
 File lengths (MBytes):  RWF=      5 Int=      0 D2E=      0 Chk=      1 Scr=      1
 Normal termination of Gaussian 09 at Wed Sep 14 13:50:39 2016.
