 Entering Gaussian System, Link 0=g16
 Initial command:
 /opt/frontend/QCh/Gaussian/16/Rev.A.03/AVX//g16/l1.exe "/scr/1912959.mgmt.skoltech.ru/Gau-8958.inp" -scrdir="/scr/1912959.mgmt.skoltech.ru/"
 Entering Link 1 = /opt/frontend/QCh/Gaussian/16/Rev.A.03/AVX//g16/l1.exe PID=      8959.
  
 Copyright (c) 1988,1990,1992,1993,1995,1998,2003,2009,2016,
            Gaussian, Inc.  All Rights Reserved.
  
 This is part of the Gaussian(R) 16 program.  It is based on
 the Gaussian(R) 09 system (copyright 2009, Gaussian, Inc.),
 the Gaussian(R) 03 system (copyright 2003, Gaussian, Inc.),
 the Gaussian(R) 98 system (copyright 1998, Gaussian, Inc.),
 the Gaussian(R) 94 system (copyright 1995, Gaussian, Inc.),
 the Gaussian 92(TM) system (copyright 1992, Gaussian, Inc.),
 the Gaussian 90(TM) system (copyright 1990, Gaussian, Inc.),
 the Gaussian 88(TM) system (copyright 1988, Gaussian, Inc.),
 the Gaussian 86(TM) system (copyright 1986, Carnegie Mellon
 University), and the Gaussian 82(TM) system (copyright 1983,
 Carnegie Mellon University). Gaussian is a federally registered
 trademark of Gaussian, Inc.
  
 This software contains proprietary and confidential information,
 including trade secrets, belonging to Gaussian, Inc.
  
 This software is provided under written license and may be
 used, copied, transmitted, or stored only in accord with that
 written license.
  
 The following legend is applicable only to US Government
 contracts under FAR:
  
                    RESTRICTED RIGHTS LEGEND
  
 Use, reproduction and disclosure by the US Government is
 subject to restrictions as set forth in subparagraphs (a)
 and (c) of the Commercial Computer Software - Restricted
 Rights clause in FAR 52.227-19.
  
 Gaussian, Inc.
 340 Quinnipiac St., Bldg. 40, Wallingford CT 06492
  
  
 ---------------------------------------------------------------
 Warning -- This program may not be used in any manner that
 competes with the business of Gaussian, Inc. or will provide
 assistance to any competitor of Gaussian, Inc.  The licensee
 of this program is prohibited from giving any competitor of
 Gaussian, Inc. access to this program.  By using this program,
 the user acknowledges that Gaussian, Inc. is engaged in the
 business of creating and licensing software in the field of
 computational chemistry and represents and warrants to the
 licensee that it is not a competitor of Gaussian, Inc. and that
 it will not use this program in any manner prohibited above.
 ---------------------------------------------------------------
  

 Cite this work as:
 Gaussian 16, Revision A.03,
 M. J. Frisch, G. W. Trucks, H. B. Schlegel, G. E. Scuseria, 
 M. A. Robb, J. R. Cheeseman, G. Scalmani, V. Barone, 
 G. A. Petersson, H. Nakatsuji, X. Li, M. Caricato, A. V. Marenich, 
 J. Bloino, B. G. Janesko, R. Gomperts, B. Mennucci, H. P. Hratchian, 
 J. V. Ortiz, A. F. Izmaylov, J. L. Sonnenberg, D. Williams-Young, 
 F. Ding, F. Lipparini, F. Egidi, J. Goings, B. Peng, A. Petrone, 
 T. Henderson, D. Ranasinghe, V. G. Zakrzewski, J. Gao, N. Rega, 
 G. Zheng, W. Liang, M. Hada, M. Ehara, K. Toyota, R. Fukuda, 
 J. Hasegawa, M. Ishida, T. Nakajima, Y. Honda, O. Kitao, H. Nakai, 
 T. Vreven, K. Throssell, J. A. Montgomery, Jr., J. E. Peralta, 
 F. Ogliaro, M. J. Bearpark, J. J. Heyd, E. N. Brothers, K. N. Kudin, 
 V. N. Staroverov, T. A. Keith, R. Kobayashi, J. Normand, 
 K. Raghavachari, A. P. Rendell, J. C. Burant, S. S. Iyengar, 
 J. Tomasi, M. Cossi, J. M. Millam, M. Klene, C. Adamo, R. Cammi, 
 J. W. Ochterski, R. L. Martin, K. Morokuma, O. Farkas, 
 J. B. Foresman, and D. J. Fox, Gaussian, Inc., Wallingford CT, 2016.
 
 ******************************************
 Gaussian 16:  ES64L-G16RevA.03 25-Dec-2016
                 2-Nov-2018 
 ******************************************
 %mem=48GB
 %nproc=4
 Will use up to    4 processors via shared memory.
 Default route: MaxDisk=60GB
 ------------------
 #T B3LYP 6-31g opt
 ------------------


 Symbolic Z-matrix:
 Charge =  0 Multiplicity = 1
 N                     1.1218    0.        0. 
 C                     0.3341    1.1209    0. 
 C                     0.3341   -1.1209    0. 
 C                    -0.9847    0.7076    0. 
 C                    -0.9847   -0.7076    0. 
 H                     2.1178    0.        0. 
 H                     0.7614    2.1084    0. 
 H                     0.7614   -2.1084    0. 
 H                    -1.8429    1.3566    0. 
 H                    -1.8429   -1.3566    0. 
 

 GradGradGradGradGradGradGradGradGradGradGradGradGradGradGradGradGradGrad
 Initialization pass.
                           ----------------------------
                           !    Initial Parameters    !
                           ! (Angstroms and Degrees)  !
 --------------------------                            --------------------------
 ! Name  Definition              Value          Derivative Info.                !
 --------------------------------------------------------------------------------
 ! R1    R(1,2)                  1.37           estimate D2E/DX2                !
 ! R2    R(1,3)                  1.37           estimate D2E/DX2                !
 ! R3    R(1,6)                  0.996          estimate D2E/DX2                !
 ! R4    R(2,4)                  1.382          estimate D2E/DX2                !
 ! R5    R(2,7)                  1.076          estimate D2E/DX2                !
 ! R6    R(3,5)                  1.382          estimate D2E/DX2                !
 ! R7    R(3,8)                  1.076          estimate D2E/DX2                !
 ! R8    R(4,5)                  1.4152         estimate D2E/DX2                !
 ! R9    R(4,9)                  1.076          estimate D2E/DX2                !
 ! R10   R(5,10)                 1.076          estimate D2E/DX2                !
 ! A1    A(2,1,3)              109.8056         estimate D2E/DX2                !
 ! A2    A(2,1,6)              125.0972         estimate D2E/DX2                !
 ! A3    A(3,1,6)              125.0972         estimate D2E/DX2                !
 ! A4    A(1,2,4)              107.6967         estimate D2E/DX2                !
 ! A5    A(1,2,7)              121.5042         estimate D2E/DX2                !
 ! A6    A(4,2,7)              130.7991         estimate D2E/DX2                !
 ! A7    A(1,3,5)              107.6967         estimate D2E/DX2                !
 ! A8    A(1,3,8)              121.5042         estimate D2E/DX2                !
 ! A9    A(5,3,8)              130.7991         estimate D2E/DX2                !
 ! A10   A(2,4,5)              107.4005         estimate D2E/DX2                !
 ! A11   A(2,4,9)              125.5017         estimate D2E/DX2                !
 ! A12   A(5,4,9)              127.0978         estimate D2E/DX2                !
 ! A13   A(3,5,4)              107.4005         estimate D2E/DX2                !
 ! A14   A(3,5,10)             125.5017         estimate D2E/DX2                !
 ! A15   A(4,5,10)             127.0978         estimate D2E/DX2                !
 ! D1    D(3,1,2,4)              0.0            estimate D2E/DX2                !
 ! D2    D(3,1,2,7)            180.0            estimate D2E/DX2                !
 ! D3    D(6,1,2,4)            180.0            estimate D2E/DX2                !
 ! D4    D(6,1,2,7)              0.0            estimate D2E/DX2                !
 ! D5    D(2,1,3,5)              0.0            estimate D2E/DX2                !
 ! D6    D(2,1,3,8)            180.0            estimate D2E/DX2                !
 ! D7    D(6,1,3,5)            180.0            estimate D2E/DX2                !
 ! D8    D(6,1,3,8)              0.0            estimate D2E/DX2                !
 ! D9    D(1,2,4,5)              0.0            estimate D2E/DX2                !
 ! D10   D(1,2,4,9)            180.0            estimate D2E/DX2                !
 ! D11   D(7,2,4,5)            180.0            estimate D2E/DX2                !
 ! D12   D(7,2,4,9)              0.0            estimate D2E/DX2                !
 ! D13   D(1,3,5,4)              0.0            estimate D2E/DX2                !
 ! D14   D(1,3,5,10)           180.0            estimate D2E/DX2                !
 ! D15   D(8,3,5,4)            180.0            estimate D2E/DX2                !
 ! D16   D(8,3,5,10)             0.0            estimate D2E/DX2                !
 ! D17   D(2,4,5,3)              0.0            estimate D2E/DX2                !
 ! D18   D(2,4,5,10)           180.0            estimate D2E/DX2                !
 ! D19   D(9,4,5,3)            180.0            estimate D2E/DX2                !
 ! D20   D(9,4,5,10)             0.0            estimate D2E/DX2                !
 --------------------------------------------------------------------------------
 Number of steps in this run=     55 maximum allowed number of steps=    100.
 GradGradGradGradGradGradGradGradGradGradGradGradGradGradGradGradGradGrad

                    Distance matrix (angstroms):
                    1          2          3          4          5
     1  N    0.000000
     2  C    1.369996   0.000000
     3  C    1.369996   2.241800   0.000000
     4  C    2.222170   1.382046   2.254472   0.000000
     5  C    2.222170   2.254472   1.382046   1.415200   0.000000
     6  H    0.996000   2.106657   2.106657   3.182170   3.182170
     7  H    2.138981   1.075984   3.257447   2.238550   3.313415
     8  H    2.138981   3.257447   1.075984   3.313415   2.238550
     9  H    3.260339   2.189722   3.298081   1.075969   2.235493
    10  H    3.260339   3.298081   2.189722   2.235493   1.075969
                    6          7          8          9         10
     6  H    0.000000
     7  H    2.507024   0.000000
     8  H    2.507024   4.216800   0.000000
     9  H    4.186587   2.710642   4.334582   0.000000
    10  H    4.186587   4.334582   2.710642   2.713200   0.000000
 Framework group  C2V[C2(NH),SGV(C4H4)]
 Deg. of freedom     9
                         Standard orientation:                         
 ---------------------------------------------------------------------
 Center     Atomic      Atomic             Coordinates (Angstroms)
 Number     Number       Type             X           Y           Z
 ---------------------------------------------------------------------
      1          7           0        0.000000   -0.000000    1.121794
      2          6           0        0.000000    1.120900    0.334094
      3          6           0       -0.000000   -1.120900    0.334094
      4          6           0        0.000000    0.707600   -0.984706
      5          6           0       -0.000000   -0.707600   -0.984706
      6          1           0        0.000000   -0.000000    2.117794
      7          1           0        0.000000    2.108400    0.761394
      8          1           0       -0.000000   -2.108400    0.761394
      9          1           0        0.000000    1.356600   -1.842906
     10          1           0       -0.000000   -1.356600   -1.842906
 ---------------------------------------------------------------------
 Rotational constants (GHZ):           9.2154256           9.0074932           4.5551366
    55 basis functions,   130 primitive gaussians,    55 cartesian basis functions
    18 alpha electrons       18 beta electrons
       nuclear repulsion energy       161.1438701545 Hartrees.
 NAtoms=   10 NActive=   10 NUniq=    6 SFac= 2.78D+00 NAtFMM=   60 NAOKFM=F Big=F
 ExpMin= 1.61D-01 ExpMax= 4.17D+03 ExpMxC= 6.27D+02 IAcc=3 IRadAn=         5 AccDes= 0.00D+00
 Harris functional with IExCor=  402 and IRadAn=       5 diagonalized for initial guess.
 HarFok:  IExCor=  402 AccDes= 0.00D+00 IRadAn=         5 IDoV= 1 UseB2=F ITyADJ=14
 ICtDFT=  3500011 ScaDFX=  1.000000  1.000000  1.000000  1.000000
 FoFCou: FMM=F IPFlag=           0 FMFlag=      100000 FMFlg1=           0
         NFxFlg=           0 DoJE=T BraDBF=F KetDBF=T FulRan=T
         wScrn=  0.000000 ICntrl=       500 IOpCl=  0 I1Cent=   200000004 NGrid=           0
         NMat0=    1 NMatS0=      1 NMatT0=    0 NMatD0=    1 NMtDS0=    0 NMtDT0=    0
 Petite list used in FoFCou.
 Initial guess orbital symmetries:
       Occupied  (A1) (A1) (B2) (B2) (A1) (A1) (A1) (B2) (A1) (B2)
                 (A1) (A1) (B2) (B2) (A1) (B1) (B1) (A2)
       Virtual   (B1) (A2) (A1) (A1) (B2) (A1) (B2) (B2) (A1) (A1)
                 (B2) (B2) (B1) (A1) (B2) (A1) (A2) (A1) (B1) (B2)
                 (A2) (A1) (B1) (B2) (A1) (B2) (A1) (B2) (B2) (A1)
                 (A1) (B2) (A1) (B2) (A1) (B2) (A1)
 The electronic state of the initial guess is 1-A1.
 Integral accuracy reduced to 1.0D-05 until final iterations.
 Initial convergence to 1.0D-05 achieved.  Increase integral accuracy.
 SCF Done:  E(RB3LYP) =  -210.113311711     A.U. after   13 cycles
            NFock= 13  Conv=0.31D-08     -V/T= 2.0050

 **********************************************************************

            Population analysis using the SCF density.

 **********************************************************************

 Orbital symmetries:
       Occupied  (A1) (B2) (A1) (A1) (B2) (A1) (A1) (B2) (A1) (B2)
                 (A1) (A1) (B2) (B1) (B2) (A1) (B1) (A2)
       Virtual   (B1) (A1) (A2) (A1) (B2) (A1) (B2) (B2) (A1) (A1)
                 (B2) (B2) (B1) (A1) (A1) (A2) (B2) (B1) (A1) (B2)
                 (A2) (A1) (B1) (B2) (A1) (B2) (A1) (B2) (B2) (A1)
                 (A1) (B2) (A1) (B2) (A1) (B2) (A1)
 The electronic state is 1-A1.
 Alpha  occ. eigenvalues --  -14.36946 -10.19493 -10.19491 -10.15681 -10.15644
 Alpha  occ. eigenvalues --   -0.97737  -0.77007  -0.71649  -0.58987  -0.56061
 Alpha  occ. eigenvalues --   -0.54008  -0.42786  -0.41983  -0.39979  -0.38276
 Alpha  occ. eigenvalues --   -0.37007  -0.23627  -0.20336
 Alpha virt. eigenvalues --    0.04965   0.08170   0.09818   0.14301   0.16536
 Alpha virt. eigenvalues --    0.17327   0.18552   0.24542   0.24674   0.34402
 Alpha virt. eigenvalues --    0.37605   0.45714   0.55889   0.58130   0.61326
 Alpha virt. eigenvalues --    0.61500   0.63175   0.63991   0.65123   0.66246
 Alpha virt. eigenvalues --    0.69534   0.70600   0.77662   0.86139   0.87629
 Alpha virt. eigenvalues --    0.88260   0.90231   0.94877   0.95695   0.98425
 Alpha virt. eigenvalues --    1.03607   1.16313   1.23523   1.32756   1.35292
 Alpha virt. eigenvalues --    1.55068   1.67576
          Condensed to atoms (all electrons):
 Mulliken charges:
               1
     1  N   -0.655428
     2  C    0.081808
     3  C    0.081808
     4  C   -0.174565
     5  C   -0.174565
     6  H    0.317570
     7  H    0.141990
     8  H    0.141990
     9  H    0.119696
    10  H    0.119696
 Sum of Mulliken charges =   0.00000
 Mulliken charges with hydrogens summed into heavy atoms:
               1
     1  N   -0.337859
     2  C    0.223798
     3  C    0.223798
     4  C   -0.054869
     5  C   -0.054869
 Electronic spatial extent (au):  <R**2>=            304.1745
 Charge=              0.0000 electrons
 Dipole moment (field-independent basis, Debye):
    X=             -0.0000    Y=              0.0000    Z=              1.9477  Tot=              1.9477
 Calling FoFJK, ICntrl=      2127 FMM=F ISym2X=1 I1Cent= 0 IOpClX= 0 NMat=1 NMatS=1 NMatT=0.

 GradGradGradGradGradGradGradGradGradGradGradGradGradGradGradGradGradGrad
 FormGI is forming the generalized inverse of G from B-inverse, IUseBI=4.
 Internal  Forces:  Max     0.014176738 RMS     0.004035622
 Step number   1 out of a maximum of   55
 All quantities printed in internal units (Hartrees-Bohrs-Radians)
 Mixed Optimization -- RFO/linear search
 Second derivative matrix not updated -- first step.
 ITU=  0
     Eigenvalues ---    0.02032   0.02089   0.02097   0.02134   0.02195
     Eigenvalues ---    0.02226   0.02247   0.16000   0.16000   0.16000
     Eigenvalues ---    0.16000   0.16000   0.22000   0.22000   0.36484
     Eigenvalues ---    0.36484   0.36486   0.36486   0.39969   0.42973
     Eigenvalues ---    0.47568   0.48399   0.49279   0.50482
 Linear search not attempted -- first point.
 Iteration  1 RMS(Cart)=  0.01148120 RMS(Int)=  0.00001570
 Iteration  2 RMS(Cart)=  0.00001902 RMS(Int)=  0.00000097
 Iteration  3 RMS(Cart)=  0.00000000 RMS(Int)=  0.00000097
 ClnCor:  largest displacement from symmetrization is 8.45D-12 for atom     7.
 Variable       Old X    -DE/DX   Delta X   Delta X   Delta X     New X
                                 (Linear)    (Quad)   (Total)
    R1        2.58892   0.01418   0.00000   0.02866   0.02866   2.61757
    R2        2.58892   0.01418   0.00000   0.02866   0.02866   2.61757
    R3        1.88217   0.00954   0.00000   0.01965   0.01965   1.90181
    R4        2.61169   0.00362   0.00000   0.00704   0.00704   2.61873
    R5        2.03332   0.00154   0.00000   0.00421   0.00421   2.03752
    R6        2.61169   0.00362   0.00000   0.00704   0.00704   2.61873
    R7        2.03332   0.00154   0.00000   0.00421   0.00421   2.03752
    R8        2.67434   0.01338   0.00000   0.02952   0.02952   2.70386
    R9        2.03329   0.00256   0.00000   0.00698   0.00698   2.04027
   R10        2.03329   0.00256   0.00000   0.00698   0.00698   2.04027
    A1        1.91647   0.00013   0.00000   0.00441   0.00441   1.92088
    A2        2.18336  -0.00006   0.00000  -0.00221  -0.00220   2.18115
    A3        2.18336  -0.00006   0.00000  -0.00221  -0.00220   2.18115
    A4        1.87966  -0.00164   0.00000  -0.00616  -0.00616   1.87350
    A5        2.12065   0.00116   0.00000   0.00517   0.00517   2.12582
    A6        2.28287   0.00048   0.00000   0.00099   0.00099   2.28387
    A7        1.87966  -0.00164   0.00000  -0.00616  -0.00616   1.87350
    A8        2.12065   0.00116   0.00000   0.00517   0.00517   2.12582
    A9        2.28287   0.00048   0.00000   0.00099   0.00099   2.28387
   A10        1.87449   0.00157   0.00000   0.00396   0.00396   1.87845
   A11        2.19042  -0.00029   0.00000   0.00108   0.00108   2.19149
   A12        2.21828  -0.00128   0.00000  -0.00503  -0.00504   2.21324
   A13        1.87449   0.00157   0.00000   0.00396   0.00396   1.87845
   A14        2.19042  -0.00029   0.00000   0.00108   0.00108   2.19149
   A15        2.21828  -0.00128   0.00000  -0.00503  -0.00504   2.21324
    D1       -0.00000   0.00000   0.00000   0.00000   0.00000   0.00000
    D2        3.14159   0.00000   0.00000   0.00000   0.00000   3.14159
    D3        3.14159  -0.00000   0.00000  -0.00000   0.00000   3.14159
    D4        0.00000  -0.00000   0.00000  -0.00000   0.00000   0.00000
    D5        0.00000  -0.00000   0.00000  -0.00000   0.00000   0.00000
    D6        3.14159  -0.00000   0.00000  -0.00000   0.00000   3.14159
    D7        3.14159   0.00000   0.00000   0.00000   0.00000   3.14159
    D8        0.00000   0.00000   0.00000   0.00000  -0.00000   0.00000
    D9        0.00000  -0.00000   0.00000  -0.00000   0.00000   0.00000
   D10        3.14159  -0.00000   0.00000  -0.00000   0.00000   3.14159
   D11        3.14159  -0.00000   0.00000  -0.00000   0.00000   3.14159
   D12        0.00000   0.00000   0.00000   0.00000   0.00000   0.00000
   D13       -0.00000   0.00000   0.00000   0.00000   0.00000   0.00000
   D14        3.14159   0.00000   0.00000   0.00000   0.00000   3.14159
   D15        3.14159   0.00000   0.00000   0.00000   0.00000   3.14159
   D16       -0.00000   0.00000   0.00000  -0.00000   0.00000   0.00000
   D17       -0.00000   0.00000   0.00000   0.00000   0.00000   0.00000
   D18        3.14159   0.00000   0.00000   0.00000   0.00000   3.14159
   D19        3.14159  -0.00000   0.00000  -0.00000   0.00000   3.14159
   D20        0.00000  -0.00000   0.00000  -0.00000   0.00000   0.00000
         Item               Value     Threshold  Converged?
 Maximum Force            0.014177     0.000450     NO 
 RMS     Force            0.004036     0.000300     NO 
 Maximum Displacement     0.033016     0.001800     NO 
 RMS     Displacement     0.011479     0.001200     NO 
 GradGradGradGradGradGradGradGradGradGradGradGradGradGradGradGradGradGrad

                    Distance matrix (angstroms):
                    1          2          3          4          5
     1  N    0.000000
     2  C    1.385160   0.000000
     3  C    1.385160   2.270119   0.000000
     4  C    2.232365   1.385774   2.273434   0.000000
     5  C    2.232365   2.273434   1.385774   1.430822   0.000000
     6  H    1.006396   2.128261   2.128261   3.201966   3.201966
     7  H    2.157603   1.078212   3.288541   2.244491   3.334850
     8  H    2.157603   3.288541   1.078212   3.334850   2.244491
     9  H    3.275749   2.196905   3.318363   1.079663   2.250350
    10  H    3.275749   3.318363   2.196905   2.250350   1.079663
                    6          7          8          9         10
     6  H    0.000000
     7  H    2.531827   0.000000
     8  H    2.531827   4.251742   0.000000
     9  H    4.211835   2.719753   4.356754   0.000000
    10  H    4.211835   4.356754   2.719753   2.724589   0.000000
 Framework group  C2V[C2(NH),SGV(C4H4)]
 Deg. of freedom     9
                         Standard orientation:                         
 ---------------------------------------------------------------------
 Center     Atomic      Atomic             Coordinates (Angstroms)
 Number     Number       Type             X           Y           Z
 ---------------------------------------------------------------------
      1          7           0       -0.000000    0.000000    1.127544
      2          6           0        0.000000    1.135060    0.333624
      3          6           0       -0.000000   -1.135060    0.333624
      4          6           0        0.000000    0.715411   -0.987082
      5          6           0       -0.000000   -0.715411   -0.987082
      6          1           0       -0.000000    0.000000    2.133940
      7          1           0        0.000000    2.125871    0.758869
      8          1           0       -0.000000   -2.125871    0.758869
      9          1           0        0.000000    1.362294   -1.851497
     10          1           0       -0.000000   -1.362294   -1.851497
 ---------------------------------------------------------------------
 Rotational constants (GHZ):           9.0158881           8.9419259           4.4893774
    55 basis functions,   130 primitive gaussians,    55 cartesian basis functions
    18 alpha electrons       18 beta electrons
       nuclear repulsion energy       159.9865699525 Hartrees.
 NAtoms=   10 NActive=   10 NUniq=    6 SFac= 2.78D+00 NAtFMM=   60 NAOKFM=F Big=F
 Initial guess from the checkpoint file:  "/scr/1912959.mgmt.skoltech.ru/Gau-8959.chk"
 B after Tr=    -0.000000    0.000000    0.000000
         Rot=    1.000000    0.000000    0.000000    0.000000 Ang=   0.00 deg.
 Initial guess orbital symmetries:
       Occupied  (A1) (B2) (A1) (A1) (B2) (A1) (A1) (B2) (A1) (B2)
                 (A1) (A1) (B2) (B1) (B2) (A1) (B1) (A2)
       Virtual   (B1) (A1) (A2) (A1) (B2) (A1) (B2) (B2) (A1) (A1)
                 (B2) (B2) (B1) (A1) (A1) (A2) (B2) (B1) (A1) (B2)
                 (A2) (A1) (B1) (B2) (A1) (B2) (A1) (B2) (B2) (A1)
                 (A1) (B2) (A1) (B2) (A1) (B2) (A1)
 ExpMin= 1.61D-01 ExpMax= 4.17D+03 ExpMxC= 6.27D+02 IAcc=2 IRadAn=         4 AccDes= 0.00D+00
 Harris functional with IExCor=  402 and IRadAn=       4 diagonalized for initial guess.
 HarFok:  IExCor=  402 AccDes= 0.00D+00 IRadAn=         4 IDoV= 1 UseB2=F ITyADJ=14
 ICtDFT=  3500011 ScaDFX=  1.000000  1.000000  1.000000  1.000000
 FoFCou: FMM=F IPFlag=           0 FMFlag=      100000 FMFlg1=           0
         NFxFlg=           0 DoJE=T BraDBF=F KetDBF=T FulRan=T
         wScrn=  0.000000 ICntrl=       500 IOpCl=  0 I1Cent=   200000004 NGrid=           0
         NMat0=    1 NMatS0=      1 NMatT0=    0 NMatD0=    1 NMtDS0=    0 NMtDT0=    0
 Petite list used in FoFCou.
 Integral accuracy reduced to 1.0D-05 until final iterations.
 Initial convergence to 1.0D-05 achieved.  Increase integral accuracy.
 SCF Done:  E(RB3LYP) =  -210.114061839     A.U. after   11 cycles
            NFock= 11  Conv=0.75D-08     -V/T= 2.0058
 Calling FoFJK, ICntrl=      2127 FMM=F ISym2X=1 I1Cent= 0 IOpClX= 0 NMat=1 NMatS=1 NMatT=0.

 GradGradGradGradGradGradGradGradGradGradGradGradGradGradGradGradGradGrad
 Using GEDIIS/GDIIS optimizer.
 FormGI is forming the generalized inverse of G from B-inverse, IUseBI=4.
 Internal  Forces:  Max     0.001885619 RMS     0.000602872
 Step number   2 out of a maximum of   55
 All quantities printed in internal units (Hartrees-Bohrs-Radians)
 Mixed Optimization -- En-DIIS/RFO-DIIS
 Trust test= 9.63D-01 RLast= 5.81D-02 DXMaxT set to 3.00D-01
 ITU=  1  0
 Use linear search instead of GDIIS.
     Eigenvalues ---    0.02032   0.02089   0.02097   0.02132   0.02195
     Eigenvalues ---    0.02226   0.02247   0.15829   0.16000   0.16000
     Eigenvalues ---    0.16000   0.16053   0.22000   0.22571   0.36436
     Eigenvalues ---    0.36484   0.36486   0.36611   0.40394   0.43102
     Eigenvalues ---    0.43179   0.48475   0.50486   0.53828
 Quartic linear search produced a step of -0.02085.
 Iteration  1 RMS(Cart)=  0.00212577 RMS(Int)=  0.00000361
 Iteration  2 RMS(Cart)=  0.00000419 RMS(Int)=  0.00000162
 Iteration  3 RMS(Cart)=  0.00000000 RMS(Int)=  0.00000162
 ClnCor:  largest displacement from symmetrization is 8.11D-12 for atom     6.
 Variable       Old X    -DE/DX   Delta X   Delta X   Delta X     New X
                                 (Linear)    (Quad)   (Total)
    R1        2.61757   0.00059  -0.00060   0.00292   0.00232   2.61990
    R2        2.61757   0.00059  -0.00060   0.00292   0.00232   2.61990
    R3        1.90181  -0.00017  -0.00041   0.00074   0.00033   1.90214
    R4        2.61873  -0.00189  -0.00015  -0.00349  -0.00363   2.61510
    R5        2.03752  -0.00027  -0.00009  -0.00050  -0.00059   2.03694
    R6        2.61873  -0.00189  -0.00015  -0.00349  -0.00363   2.61510
    R7        2.03752  -0.00027  -0.00009  -0.00050  -0.00059   2.03694
    R8        2.70386  -0.00025  -0.00062   0.00073   0.00011   2.70397
    R9        2.04027  -0.00007  -0.00015   0.00020   0.00005   2.04032
   R10        2.04027  -0.00007  -0.00015   0.00020   0.00005   2.04032
    A1        1.92088  -0.00167  -0.00009  -0.00630  -0.00638   1.91449
    A2        2.18115   0.00084   0.00005   0.00315   0.00319   2.18435
    A3        2.18115   0.00084   0.00005   0.00315   0.00319   2.18435
    A4        1.87350   0.00087   0.00013   0.00381   0.00394   1.87743
    A5        2.12582  -0.00088  -0.00011  -0.00452  -0.00463   2.12119
    A6        2.28387   0.00001  -0.00002   0.00072   0.00070   2.28456
    A7        1.87350   0.00087   0.00013   0.00381   0.00394   1.87743
    A8        2.12582  -0.00088  -0.00011  -0.00452  -0.00463   2.12119
    A9        2.28387   0.00001  -0.00002   0.00072   0.00070   2.28456
   A10        1.87845  -0.00003  -0.00008  -0.00066  -0.00074   1.87771
   A11        2.19149   0.00053  -0.00002   0.00366   0.00364   2.19513
   A12        2.21324  -0.00050   0.00010  -0.00300  -0.00289   2.21035
   A13        1.87845  -0.00003  -0.00008  -0.00066  -0.00074   1.87771
   A14        2.19149   0.00053  -0.00002   0.00366   0.00364   2.19513
   A15        2.21324  -0.00050   0.00010  -0.00300  -0.00289   2.21035
    D1       -0.00000   0.00000   0.00000   0.00000   0.00000   0.00000
    D2        3.14159   0.00000   0.00000   0.00000   0.00000   3.14159
    D3        3.14159  -0.00000   0.00000  -0.00000   0.00000   3.14159
    D4        0.00000  -0.00000   0.00000  -0.00000   0.00000   0.00000
    D5        0.00000  -0.00000   0.00000  -0.00000   0.00000   0.00000
    D6        3.14159  -0.00000   0.00000  -0.00000   0.00000   3.14159
    D7        3.14159   0.00000   0.00000   0.00000   0.00000   3.14159
    D8        0.00000   0.00000   0.00000   0.00000   0.00000   0.00000
    D9        0.00000  -0.00000   0.00000  -0.00000   0.00000   0.00000
   D10        3.14159  -0.00000   0.00000  -0.00000   0.00000   3.14159
   D11        3.14159  -0.00000   0.00000  -0.00000   0.00000   3.14159
   D12        0.00000   0.00000   0.00000   0.00000   0.00000   0.00000
   D13       -0.00000   0.00000   0.00000   0.00000   0.00000   0.00000
   D14        3.14159   0.00000   0.00000   0.00000   0.00000   3.14159
   D15        3.14159   0.00000   0.00000   0.00000   0.00000   3.14159
   D16       -0.00000   0.00000   0.00000  -0.00000   0.00000   0.00000
   D17        0.00000   0.00000   0.00000   0.00000  -0.00000   0.00000
   D18        3.14159   0.00000   0.00000   0.00000   0.00000   3.14159
   D19        3.14159  -0.00000   0.00000  -0.00000   0.00000   3.14159
   D20        0.00000  -0.00000   0.00000  -0.00000   0.00000   0.00000
         Item               Value     Threshold  Converged?
 Maximum Force            0.001886     0.000450     NO 
 RMS     Force            0.000603     0.000300     NO 
 Maximum Displacement     0.005908     0.001800     NO 
 RMS     Displacement     0.002127     0.001200     NO 
 GradGradGradGradGradGradGradGradGradGradGradGradGradGradGradGradGradGrad

                    Distance matrix (angstroms):
                    1          2          3          4          5
     1  N    0.000000
     2  C    1.386389   0.000000
     3  C    1.386389   2.267049   0.000000
     4  C    2.235032   1.383851   2.271325   0.000000
     5  C    2.235032   2.271325   1.383851   1.430881   0.000000
     6  H    1.006571   2.131253   2.131253   3.204877   3.204877
     7  H    2.155725   1.077902   3.284775   2.242775   3.332689
     8  H    2.155725   3.284775   1.077902   3.332689   2.242775
     9  H    3.278997   2.197174   3.315601   1.079689   2.248836
    10  H    3.278997   3.315601   2.197174   2.248836   1.079689
                    6          7          8          9         10
     6  H    0.000000
     7  H    2.531524   0.000000
     8  H    2.531524   4.246876   0.000000
     9  H    4.215648   2.721363   4.353843   0.000000
    10  H    4.215648   4.353843   2.721363   2.719677   0.000000
 Framework group  C2V[C2(NH),SGV(C4H4)]
 Deg. of freedom     9
                         Standard orientation:                         
 ---------------------------------------------------------------------
 Center     Atomic      Atomic             Coordinates (Angstroms)
 Number     Number       Type             X           Y           Z
 ---------------------------------------------------------------------
      1          7           0        0.000000    0.000000    1.130345
      2          6           0       -0.000000    1.133524    0.332099
      3          6           0       -0.000000   -1.133524    0.332099
      4          6           0       -0.000000    0.715440   -0.987086
      5          6           0       -0.000000   -0.715440   -0.987086
      6          1           0        0.000000    0.000000    2.136915
      7          1           0       -0.000000    2.123438    0.758647
      8          1           0       -0.000000   -2.123438    0.758647
      9          1           0       -0.000000    1.359838   -1.853389
     10          1           0       -0.000000   -1.359838   -1.853389
 ---------------------------------------------------------------------
 Rotational constants (GHZ):           9.0347260           8.9276091           4.4904241
    55 basis functions,   130 primitive gaussians,    55 cartesian basis functions
    18 alpha electrons       18 beta electrons
       nuclear repulsion energy       160.0036263422 Hartrees.
 NAtoms=   10 NActive=   10 NUniq=    6 SFac= 2.78D+00 NAtFMM=   60 NAOKFM=F Big=F
 Initial guess from the checkpoint file:  "/scr/1912959.mgmt.skoltech.ru/Gau-8959.chk"
 B after Tr=     0.000000    0.000000   -0.000000
         Rot=    1.000000   -0.000000   -0.000000   -0.000000 Ang=   0.00 deg.
 Initial guess orbital symmetries:
       Occupied  (A1) (B2) (A1) (A1) (B2) (A1) (A1) (B2) (A1) (B2)
                 (A1) (A1) (B2) (B1) (B2) (A1) (B1) (A2)
       Virtual   (B1) (A1) (A2) (A1) (B2) (A1) (B2) (B2) (A1) (A1)
                 (B2) (B2) (B1) (A1) (A1) (A2) (B2) (B1) (A1) (B2)
                 (A2) (A1) (B1) (B2) (A1) (B2) (A1) (B2) (B2) (A1)
                 (A1) (B2) (A1) (B2) (A1) (B2) (A1)
 SCF Done:  E(RB3LYP) =  -210.114091728     A.U. after    9 cycles
            NFock=  9  Conv=0.13D-08     -V/T= 2.0057
 Calling FoFJK, ICntrl=      2127 FMM=F ISym2X=1 I1Cent= 0 IOpClX= 0 NMat=1 NMatS=1 NMatT=0.

 GradGradGradGradGradGradGradGradGradGradGradGradGradGradGradGradGradGrad
 Using GEDIIS/GDIIS optimizer.
 FormGI is forming the generalized inverse of G from B-inverse, IUseBI=4.
 Internal  Forces:  Max     0.000917302 RMS     0.000241648
 Step number   3 out of a maximum of   55
 All quantities printed in internal units (Hartrees-Bohrs-Radians)
 Mixed Optimization -- En-DIIS/RFO-DIIS
 Swapping is turned off.
 Trust test= 1.10D+00 RLast= 1.48D-02 DXMaxT set to 3.00D-01
 ITU=  1  1  0
     Eigenvalues ---    0.02033   0.02089   0.02098   0.02133   0.02196
     Eigenvalues ---    0.02226   0.02248   0.13499   0.16000   0.16000
     Eigenvalues ---    0.16000   0.16007   0.22000   0.27113   0.36057
     Eigenvalues ---    0.36484   0.36486   0.36564   0.36902   0.42961
     Eigenvalues ---    0.43083   0.49288   0.50482   0.51974
 En-DIIS/RFO-DIIS/Sim-DIIS IScMMF=       -3 using points:     3    2
 RFO step:  Lambda=-8.30177519D-06.
 DidBck=F Rises=F RFO-DIIS coefs:    1.20456   -0.20456
 Iteration  1 RMS(Cart)=  0.00080026 RMS(Int)=  0.00000074
 Iteration  2 RMS(Cart)=  0.00000070 RMS(Int)=  0.00000022
 ClnCor:  largest displacement from symmetrization is 8.10D-12 for atom     7.
 Variable       Old X    -DE/DX   Delta X   Delta X   Delta X     New X
                                 (Linear)    (Quad)   (Total)
    R1        2.61990   0.00012   0.00047   0.00040   0.00088   2.62077
    R2        2.61990   0.00012   0.00047   0.00040   0.00088   2.62077
    R3        1.90214  -0.00052   0.00007  -0.00106  -0.00099   1.90115
    R4        2.61510  -0.00092  -0.00074  -0.00184  -0.00258   2.61252
    R5        2.03694   0.00006  -0.00012   0.00025   0.00013   2.03707
    R6        2.61510  -0.00092  -0.00074  -0.00184  -0.00258   2.61252
    R7        2.03694   0.00006  -0.00012   0.00025   0.00013   2.03707
    R8        2.70397   0.00043   0.00002   0.00128   0.00130   2.70528
    R9        2.04032  -0.00012   0.00001  -0.00033  -0.00032   2.04000
   R10        2.04032  -0.00012   0.00001  -0.00033  -0.00032   2.04000
    A1        1.91449   0.00021  -0.00131   0.00161   0.00031   1.91480
    A2        2.18435  -0.00010   0.00065  -0.00081  -0.00015   2.18419
    A3        2.18435  -0.00010   0.00065  -0.00081  -0.00015   2.18419
    A4        1.87743  -0.00023   0.00081  -0.00139  -0.00059   1.87685
    A5        2.12119  -0.00001  -0.00095  -0.00001  -0.00096   2.12023
    A6        2.28456   0.00024   0.00014   0.00140   0.00154   2.28610
    A7        1.87743  -0.00023   0.00081  -0.00139  -0.00059   1.87685
    A8        2.12119  -0.00001  -0.00095  -0.00001  -0.00096   2.12023
    A9        2.28456   0.00024   0.00014   0.00140   0.00154   2.28610
   A10        1.87771   0.00013  -0.00015   0.00059   0.00043   1.87814
   A11        2.19513   0.00008   0.00074   0.00055   0.00129   2.19642
   A12        2.21035  -0.00021  -0.00059  -0.00114  -0.00173   2.20862
   A13        1.87771   0.00013  -0.00015   0.00059   0.00043   1.87814
   A14        2.19513   0.00008   0.00074   0.00055   0.00129   2.19642
   A15        2.21035  -0.00021  -0.00059  -0.00114  -0.00173   2.20862
    D1       -0.00000   0.00000   0.00000   0.00000   0.00000   0.00000
    D2        3.14159   0.00000  -0.00000   0.00000   0.00000   3.14159
    D3        3.14159  -0.00000  -0.00000  -0.00000   0.00000   3.14159
    D4        0.00000  -0.00000   0.00000  -0.00000  -0.00000   0.00000
    D5        0.00000  -0.00000   0.00000  -0.00000   0.00000   0.00000
    D6        3.14159  -0.00000  -0.00000  -0.00000   0.00000   3.14159
    D7        3.14159   0.00000  -0.00000   0.00000   0.00000   3.14159
    D8       -0.00000   0.00000   0.00000   0.00000   0.00000   0.00000
    D9        0.00000  -0.00000   0.00000  -0.00000   0.00000   0.00000
   D10        3.14159  -0.00000  -0.00000  -0.00000   0.00000   3.14159
   D11        3.14159  -0.00000  -0.00000  -0.00000   0.00000   3.14159
   D12        0.00000   0.00000   0.00000   0.00000   0.00000   0.00000
   D13       -0.00000   0.00000   0.00000   0.00000   0.00000   0.00000
   D14        3.14159   0.00000  -0.00000   0.00000   0.00000   3.14159
   D15        3.14159   0.00000  -0.00000   0.00000   0.00000   3.14159
   D16        0.00000   0.00000   0.00000  -0.00000   0.00000   0.00000
   D17        0.00000   0.00000   0.00000   0.00000   0.00000   0.00000
   D18        3.14159   0.00000  -0.00000   0.00000   0.00000   3.14159
   D19        3.14159  -0.00000  -0.00000  -0.00000   0.00000   3.14159
   D20       -0.00000  -0.00000   0.00000  -0.00000   0.00000   0.00000
         Item               Value     Threshold  Converged?
 Maximum Force            0.000917     0.000450     NO 
 RMS     Force            0.000242     0.000300     YES
 Maximum Displacement     0.002365     0.001800     NO 
 RMS     Displacement     0.000800     0.001200     YES
 GradGradGradGradGradGradGradGradGradGradGradGradGradGradGradGradGradGrad

                    Distance matrix (angstroms):
                    1          2          3          4          5
     1  N    0.000000
     2  C    1.386853   0.000000
     3  C    1.386853   2.268055   0.000000
     4  C    2.233824   1.382484   2.271155   0.000000
     5  C    2.233824   2.271155   1.382484   1.431571   0.000000
     6  H    1.006047   2.131155   2.131155   3.203087   3.203087
     7  H    2.155639   1.077973   3.285513   2.242340   3.332876
     8  H    2.155639   3.285513   1.077973   3.332876   2.242340
     9  H    3.278101   2.196490   3.314704   1.079522   2.248376
    10  H    3.278101   3.314704   2.196490   2.248376   1.079522
                    6          7          8          9         10
     6  H    0.000000
     7  H    2.530754   0.000000
     8  H    2.530754   4.247064   0.000000
     9  H    4.214356   2.722336   4.353289   0.000000
    10  H    4.214356   4.353289   2.722336   2.717173   0.000000
 Framework group  C2V[C2(NH),SGV(C4H4)]
 Deg. of freedom     9
                         Standard orientation:                         
 ---------------------------------------------------------------------
 Center     Atomic      Atomic             Coordinates (Angstroms)
 Number     Number       Type             X           Y           Z
 ---------------------------------------------------------------------
      1          7           0       -0.000000    0.000000    1.129845
      2          6           0        0.000000    1.134027    0.331508
      3          6           0       -0.000000   -1.134027    0.331508
      4          6           0        0.000000    0.715786   -0.986193
      5          6           0       -0.000000   -0.715786   -0.986193
      6          1           0       -0.000000    0.000000    2.135892
      7          1           0        0.000000    2.123532    0.759183
      8          1           0       -0.000000   -2.123532    0.759183
      9          1           0        0.000000    1.358587   -1.853473
     10          1           0       -0.000000   -1.358587   -1.853473
 ---------------------------------------------------------------------
 Rotational constants (GHZ):           9.0293727           8.9386017           4.4918789
    55 basis functions,   130 primitive gaussians,    55 cartesian basis functions
    18 alpha electrons       18 beta electrons
       nuclear repulsion energy       160.0286949244 Hartrees.
 NAtoms=   10 NActive=   10 NUniq=    6 SFac= 2.78D+00 NAtFMM=   60 NAOKFM=F Big=F
 Initial guess from the checkpoint file:  "/scr/1912959.mgmt.skoltech.ru/Gau-8959.chk"
 B after Tr=    -0.000000    0.000000   -0.000000
         Rot=    1.000000   -0.000000    0.000000   -0.000000 Ang=   0.00 deg.
 Initial guess orbital symmetries:
       Occupied  (A1) (B2) (A1) (A1) (B2) (A1) (A1) (B2) (A1) (B2)
                 (A1) (A1) (B2) (B1) (B2) (A1) (B1) (A2)
       Virtual   (B1) (A1) (A2) (A1) (B2) (A1) (B2) (B2) (A1) (A1)
                 (B2) (B2) (B1) (A1) (A1) (A2) (B2) (B1) (A1) (B2)
                 (A2) (A1) (B1) (B2) (A1) (B2) (A1) (B2) (B2) (A1)
                 (A1) (B2) (A1) (B2) (A1) (B2) (A1)
 SCF Done:  E(RB3LYP) =  -210.114095484     A.U. after    8 cycles
            NFock=  8  Conv=0.68D-08     -V/T= 2.0057
 Calling FoFJK, ICntrl=      2127 FMM=F ISym2X=1 I1Cent= 0 IOpClX= 0 NMat=1 NMatS=1 NMatT=0.

 GradGradGradGradGradGradGradGradGradGradGradGradGradGradGradGradGradGrad
 Using GEDIIS/GDIIS optimizer.
 FormGI is forming the generalized inverse of G from B-inverse, IUseBI=4.
 Internal  Forces:  Max     0.000220014 RMS     0.000056346
 Step number   4 out of a maximum of   55
 All quantities printed in internal units (Hartrees-Bohrs-Radians)
 Mixed Optimization -- En-DIIS/RFO-DIIS
 Swapping is turned off.
 Trust test= 9.05D-01 RLast= 5.91D-03 DXMaxT set to 3.00D-01
 ITU=  1  1  1  0
     Eigenvalues ---    0.02033   0.02089   0.02098   0.02133   0.02196
     Eigenvalues ---    0.02226   0.02248   0.11729   0.16000   0.16000
     Eigenvalues ---    0.16000   0.16011   0.22000   0.26934   0.36484
     Eigenvalues ---    0.36486   0.36537   0.36697   0.41976   0.43088
     Eigenvalues ---    0.44072   0.48865   0.50482   0.54657
 En-DIIS/RFO-DIIS/Sim-DIIS IScMMF=       -3 using points:     4    3    2
 RFO step:  Lambda=-3.41453885D-07.
 DidBck=F Rises=F RFO-DIIS coefs:    0.97425    0.05789   -0.03214
 Iteration  1 RMS(Cart)=  0.00021983 RMS(Int)=  0.00000006
 Iteration  2 RMS(Cart)=  0.00000002 RMS(Int)=  0.00000005
 ClnCor:  largest displacement from symmetrization is 8.08D-12 for atom     6.
 Variable       Old X    -DE/DX   Delta X   Delta X   Delta X     New X
                                 (Linear)    (Quad)   (Total)
    R1        2.62077  -0.00006   0.00005  -0.00019  -0.00013   2.62064
    R2        2.62077  -0.00006   0.00005  -0.00019  -0.00013   2.62064
    R3        1.90115  -0.00004   0.00004  -0.00014  -0.00010   1.90105
    R4        2.61252   0.00022  -0.00005   0.00043   0.00037   2.61289
    R5        2.03707   0.00001  -0.00002   0.00004   0.00002   2.03709
    R6        2.61252   0.00022  -0.00005   0.00043   0.00037   2.61289
    R7        2.03707   0.00001  -0.00002   0.00004   0.00002   2.03709
    R8        2.70528   0.00005  -0.00003   0.00020   0.00017   2.70544
    R9        2.04000   0.00000   0.00001  -0.00002  -0.00001   2.03999
   R10        2.04000   0.00000   0.00001  -0.00002  -0.00001   2.03999
    A1        1.91480   0.00000  -0.00021   0.00019  -0.00002   1.91478
    A2        2.18419  -0.00000   0.00011  -0.00010   0.00001   2.18420
    A3        2.18419  -0.00000   0.00011  -0.00010   0.00001   2.18420
    A4        1.87685   0.00005   0.00014  -0.00000   0.00014   1.87698
    A5        2.12023  -0.00006  -0.00012  -0.00014  -0.00027   2.11997
    A6        2.28610   0.00001  -0.00002   0.00015   0.00013   2.28623
    A7        1.87685   0.00005   0.00014  -0.00000   0.00014   1.87698
    A8        2.12023  -0.00006  -0.00012  -0.00014  -0.00027   2.11997
    A9        2.28610   0.00001  -0.00002   0.00015   0.00013   2.28623
   A10        1.87814  -0.00006  -0.00004  -0.00009  -0.00013   1.87801
   A11        2.19642   0.00008   0.00008   0.00028   0.00036   2.19679
   A12        2.20862  -0.00003  -0.00005  -0.00019  -0.00023   2.20839
   A13        1.87814  -0.00006  -0.00004  -0.00009  -0.00013   1.87801
   A14        2.19642   0.00008   0.00008   0.00028   0.00036   2.19679
   A15        2.20862  -0.00003  -0.00005  -0.00019  -0.00023   2.20839
    D1       -0.00000   0.00000   0.00000   0.00000   0.00000   0.00000
    D2        3.14159   0.00000  -0.00000   0.00000   0.00000   3.14159
    D3        3.14159  -0.00000  -0.00000  -0.00000   0.00000   3.14159
    D4        0.00000  -0.00000   0.00000  -0.00000  -0.00000   0.00000
    D5        0.00000  -0.00000   0.00000  -0.00000   0.00000   0.00000
    D6        3.14159  -0.00000  -0.00000  -0.00000   0.00000   3.14159
    D7        3.14159   0.00000  -0.00000   0.00000   0.00000   3.14159
    D8       -0.00000   0.00000   0.00000   0.00000   0.00000   0.00000
    D9        0.00000  -0.00000   0.00000  -0.00000   0.00000   0.00000
   D10        3.14159  -0.00000  -0.00000  -0.00000   0.00000   3.14159
   D11        3.14159  -0.00000  -0.00000  -0.00000   0.00000   3.14159
   D12       -0.00000   0.00000   0.00000   0.00000   0.00000   0.00000
   D13       -0.00000   0.00000   0.00000   0.00000   0.00000   0.00000
   D14        3.14159   0.00000  -0.00000   0.00000   0.00000   3.14159
   D15        3.14159   0.00000  -0.00000   0.00000   0.00000   3.14159
   D16       -0.00000   0.00000   0.00000  -0.00000   0.00000   0.00000
   D17       -0.00000   0.00000   0.00000   0.00000   0.00000   0.00000
   D18        3.14159   0.00000  -0.00000   0.00000   0.00000   3.14159
   D19        3.14159  -0.00000  -0.00000  -0.00000   0.00000   3.14159
   D20        0.00000  -0.00000   0.00000  -0.00000   0.00000   0.00000
         Item               Value     Threshold  Converged?
 Maximum Force            0.000220     0.000450     YES
 RMS     Force            0.000056     0.000300     YES
 Maximum Displacement     0.000652     0.001800     YES
 RMS     Displacement     0.000220     0.001200     YES
 Optimization completed.
    -- Stationary point found.
                           ----------------------------
                           !   Optimized Parameters   !
                           ! (Angstroms and Degrees)  !
 --------------------------                            --------------------------
 ! Name  Definition              Value          Derivative Info.                !
 --------------------------------------------------------------------------------
 ! R1    R(1,2)                  1.3869         -DE/DX =   -0.0001              !
 ! R2    R(1,3)                  1.3869         -DE/DX =   -0.0001              !
 ! R3    R(1,6)                  1.006          -DE/DX =    0.0                 !
 ! R4    R(2,4)                  1.3825         -DE/DX =    0.0002              !
 ! R5    R(2,7)                  1.078          -DE/DX =    0.0                 !
 ! R6    R(3,5)                  1.3825         -DE/DX =    0.0002              !
 ! R7    R(3,8)                  1.078          -DE/DX =    0.0                 !
 ! R8    R(4,5)                  1.4316         -DE/DX =    0.0001              !
 ! R9    R(4,9)                  1.0795         -DE/DX =    0.0                 !
 ! R10   R(5,10)                 1.0795         -DE/DX =    0.0                 !
 ! A1    A(2,1,3)              109.7101         -DE/DX =    0.0                 !
 ! A2    A(2,1,6)              125.145          -DE/DX =    0.0                 !
 ! A3    A(3,1,6)              125.145          -DE/DX =    0.0                 !
 ! A4    A(1,2,4)              107.5354         -DE/DX =    0.0001              !
 ! A5    A(1,2,7)              121.4805         -DE/DX =   -0.0001              !
 ! A6    A(4,2,7)              130.9842         -DE/DX =    0.0                 !
 ! A7    A(1,3,5)              107.5354         -DE/DX =    0.0001              !
 ! A8    A(1,3,8)              121.4805         -DE/DX =   -0.0001              !
 ! A9    A(5,3,8)              130.9842         -DE/DX =    0.0                 !
 ! A10   A(2,4,5)              107.6096         -DE/DX =   -0.0001              !
 ! A11   A(2,4,9)              125.8457         -DE/DX =    0.0001              !
 ! A12   A(5,4,9)              126.5447         -DE/DX =    0.0                 !
 ! A13   A(3,5,4)              107.6096         -DE/DX =   -0.0001              !
 ! A14   A(3,5,10)             125.8457         -DE/DX =    0.0001              !
 ! A15   A(4,5,10)             126.5447         -DE/DX =    0.0                 !
 ! D1    D(3,1,2,4)              0.0            -DE/DX =    0.0                 !
 ! D2    D(3,1,2,7)            180.0            -DE/DX =    0.0                 !
 ! D3    D(6,1,2,4)            180.0            -DE/DX =    0.0                 !
 ! D4    D(6,1,2,7)              0.0            -DE/DX =    0.0                 !
 ! D5    D(2,1,3,5)              0.0            -DE/DX =    0.0                 !
 ! D6    D(2,1,3,8)            180.0            -DE/DX =    0.0                 !
 ! D7    D(6,1,3,5)            180.0            -DE/DX =    0.0                 !
 ! D8    D(6,1,3,8)              0.0            -DE/DX =    0.0                 !
 ! D9    D(1,2,4,5)              0.0            -DE/DX =    0.0                 !
 ! D10   D(1,2,4,9)            180.0            -DE/DX =    0.0                 !
 ! D11   D(7,2,4,5)            180.0            -DE/DX =    0.0                 !
 ! D12   D(7,2,4,9)              0.0            -DE/DX =    0.0                 !
 ! D13   D(1,3,5,4)              0.0            -DE/DX =    0.0                 !
 ! D14   D(1,3,5,10)           180.0            -DE/DX =    0.0                 !
 ! D15   D(8,3,5,4)            180.0            -DE/DX =    0.0                 !
 ! D16   D(8,3,5,10)             0.0            -DE/DX =    0.0                 !
 ! D17   D(2,4,5,3)              0.0            -DE/DX =    0.0                 !
 ! D18   D(2,4,5,10)           180.0            -DE/DX =    0.0                 !
 ! D19   D(9,4,5,3)            180.0            -DE/DX =    0.0                 !
 ! D20   D(9,4,5,10)             0.0            -DE/DX =    0.0                 !
 --------------------------------------------------------------------------------
 GradGradGradGradGradGradGradGradGradGradGradGradGradGradGradGradGradGrad

                    Distance matrix (angstroms):
                    1          2          3          4          5
     1  N    0.000000
     2  C    1.386853   0.000000
     3  C    1.386853   2.268055   0.000000
     4  C    2.233824   1.382484   2.271155   0.000000
     5  C    2.233824   2.271155   1.382484   1.431571   0.000000
     6  H    1.006047   2.131155   2.131155   3.203087   3.203087
     7  H    2.155639   1.077973   3.285513   2.242340   3.332876
     8  H    2.155639   3.285513   1.077973   3.332876   2.242340
     9  H    3.278101   2.196490   3.314704   1.079522   2.248376
    10  H    3.278101   3.314704   2.196490   2.248376   1.079522
                    6          7          8          9         10
     6  H    0.000000
     7  H    2.530754   0.000000
     8  H    2.530754   4.247064   0.000000
     9  H    4.214356   2.722336   4.353289   0.000000
    10  H    4.214356   4.353289   2.722336   2.717173   0.000000
 Framework group  C2V[C2(NH),SGV(C4H4)]
 Deg. of freedom     9
                         Standard orientation:                         
 ---------------------------------------------------------------------
 Center     Atomic      Atomic             Coordinates (Angstroms)
 Number     Number       Type             X           Y           Z
 ---------------------------------------------------------------------
      1          7           0        0.000000    0.000000    1.129845
      2          6           0        0.000000    1.134027    0.331508
      3          6           0       -0.000000   -1.134027    0.331508
      4          6           0        0.000000    0.715786   -0.986193
      5          6           0       -0.000000   -0.715786   -0.986193
      6          1           0        0.000000    0.000000    2.135892
      7          1           0        0.000000    2.123532    0.759183
      8          1           0       -0.000000   -2.123532    0.759183
      9          1           0        0.000000    1.358587   -1.853473
     10          1           0       -0.000000   -1.358587   -1.853473
 ---------------------------------------------------------------------
 Rotational constants (GHZ):           9.0293727           8.9386017           4.4918789

 **********************************************************************

            Population analysis using the SCF density.

 **********************************************************************

 Orbital symmetries:
       Occupied  (A1) (B2) (A1) (A1) (B2) (A1) (A1) (B2) (A1) (B2)
                 (A1) (A1) (B2) (B1) (B2) (A1) (B1) (A2)
       Virtual   (B1) (A1) (A2) (A1) (B2) (A1) (B2) (B2) (A1) (A1)
                 (B2) (B2) (B1) (A1) (A1) (A2) (B2) (B1) (A1) (B2)
                 (A2) (A1) (B1) (B2) (A1) (B2) (A1) (B2) (B2) (A1)
                 (A1) (B2) (A1) (B2) (A1) (B2) (A1)
 The electronic state is 1-A1.
 Alpha  occ. eigenvalues --  -14.36958 -10.19780 -10.19777 -10.15966 -10.15934
 Alpha  occ. eigenvalues --   -0.96755  -0.76591  -0.71480  -0.58528  -0.55814
 Alpha  occ. eigenvalues --   -0.53938  -0.42588  -0.41909  -0.39426  -0.38456
 Alpha  occ. eigenvalues --   -0.36861  -0.23426  -0.20490
 Alpha virt. eigenvalues --    0.04648   0.08034   0.09543   0.14058   0.16358
 Alpha virt. eigenvalues --    0.17075   0.18348   0.23652   0.24313   0.34337
 Alpha virt. eigenvalues --    0.37628   0.44660   0.55926   0.57755   0.60596
 Alpha virt. eigenvalues --    0.61487   0.62319   0.64091   0.65161   0.66225
 Alpha virt. eigenvalues --    0.69386   0.70112   0.77663   0.86239   0.87691
 Alpha virt. eigenvalues --    0.87709   0.89630   0.94253   0.95334   0.98199
 Alpha virt. eigenvalues --    1.03688   1.15799   1.23322   1.32150   1.34867
 Alpha virt. eigenvalues --    1.54548   1.66988
          Condensed to atoms (all electrons):
 Mulliken charges:
               1
     1  N   -0.662902
     2  C    0.083256
     3  C    0.083256
     4  C   -0.174748
     5  C   -0.174748
     6  H    0.317995
     7  H    0.143256
     8  H    0.143256
     9  H    0.120690
    10  H    0.120690
 Sum of Mulliken charges =  -0.00000
 Mulliken charges with hydrogens summed into heavy atoms:
               1
     1  N   -0.344907
     2  C    0.226512
     3  C    0.226512
     4  C   -0.054058
     5  C   -0.054058
 Electronic spatial extent (au):  <R**2>=            307.4476
 Charge=             -0.0000 electrons
 Dipole moment (field-independent basis, Debye):
    X=             -0.0000    Y=             -0.0000    Z=              1.8971  Tot=              1.8971
 1\1\GINC-NODE19\FOpt\RB3LYP\6-31G\C4H5N1\ROOT\02-Nov-2018\0\\#T B3LYP 
 6-31g opt\\\0,1\N,1.1306067328,0.,0.\C,0.3322689249,1.1340273585,0.\C,
 0.3322689249,-1.1340273585,0.\C,-0.9854318818,0.7157855431,0.\C,-0.985
 4318818,-0.7157855431,0.\H,2.1366538364,0.,0.\H,0.7599445808,2.1235318
 034,0.\H,0.7599445808,-2.1235318034,0.\H,-1.8527119084,1.3585865949,0.
 \H,-1.8527119084,-1.3585865949,0.\\Version=ES64L-G16RevA.03\State=1-A1
 \HF=-210.1140955\RMSD=6.806e-09\RMSF=8.059e-05\Dipole=0.7463571,0.,0.\
 Quadrupole=3.2004488,0.9216979,-4.1221467,0.,0.,0.\PG=C02V [C2(N1H1),S
 GV(C4H4)]\\@


 ON INDUCTION, OR "WHY DO YOU BELIEVE THE SUN WILL RISE TOMORROW?":

 ... THE FARMER WHO HAS FED THE CHICKEN EVERY DAY THROUGHOUT ITS
 LIFE AT LAST WRINGS ITS NECK INSTEAD, SHOWING THAT MORE REFINED VIEWS
 AS TO THE UNIFORMITY OF NATURE WOULD HAVE BEEN USEFUL TO THE CHICKEN.

                               -- BERTRAND RUSSELL
 Job cpu time:       0 days  0 hours  0 minutes 34.7 seconds.
 Elapsed time:       0 days  0 hours  0 minutes  8.7 seconds.
 File lengths (MBytes):  RWF=      6 Int=      0 D2E=      0 Chk=      2 Scr=      1
 Normal termination of Gaussian 16 at Fri Nov  2 01:48:49 2018.
