Lammps sample input file

68 atoms

2 atoms types

 -1.000000 1.000000 xlo xhi
 -1.000000 1.000000 ylo yhi
 -1.000000 1.000000 zlo zhi

Masses

1 12.010000
2 1.007000

Atoms

1 1 -0.076345 0.796013 14.612881
2 1 -0.589555 0.710833 15.895151
3 1 -1.681404 -0.049751 16.242939
4 1 -2.328378 -0.723648 15.223912
5 1 -1.883183 -0.680681 13.909938
6 1 -0.752670 0.091964 13.615951
7 1 -0.264589 0.235939 12.182204
8 1 -0.783453 -0.189204 11.022909
9 1 -0.188116 -0.048243 9.699328
10 1 -0.920480 -0.614347 8.647315
11 1 -0.406074 -0.582687 7.393868
12 1 0.839508 0.003769 7.122939
13 1 1.519738 0.525399 8.211779
14 1 1.025508 0.510323 9.447934
15 1 1.435594 0.105532 5.789429
16 1 0.939352 -0.206541 4.656715
17 1 1.591929 -0.101009 3.328970
18 1 0.923382 -0.636961 2.224757
19 1 1.439635 -0.609070 0.977074
20 1 2.689898 -0.009799 0.713511
21 1 3.369630 0.509569 1.824769
22 1 2.831811 0.481678 3.082059
23 1 3.316444 0.119854 -0.619678
24 1 2.828781 -0.209556 -1.747909
25 1 3.462049 -0.080657 -3.089105
26 1 2.789072 -0.622639 -4.188193
27 1 3.321332 -0.590225 -5.428831
28 1 4.556849 -0.003769 -5.677663
29 1 5.257562 0.524645 -4.560000
30 1 4.708189 0.479417 -3.301429
31 1 5.192332 0.134176 -7.021420
32 1 4.690737 -0.180158 -8.151893
33 1 5.358017 -0.070857 -9.473874
34 1 4.707910 -0.609824 -10.581288
35 1 5.301385 -0.637715 -11.829292
36 1 6.564227 -0.096486 -12.030727
37 1 7.202324 0.460572 -10.920110
38 1 6.612596 0.471879 -9.674348
39 2 0.699080 1.309049 14.420732
40 2 -0.160898 1.210151 16.579839
41 2 -1.977722 -0.110055 17.142193
42 2 -3.102968 -1.232991 15.430152
43 2 -2.333916 -1.163867 13.226851
44 2 0.552235 0.712115 12.091254
45 2 -1.626046 -0.627765 11.068705
46 2 -1.767421 -1.014389 8.810321
47 2 -0.900697 -0.967352 6.680357
48 2 2.376526 0.910440 8.069589
49 2 1.525171 0.893253 10.159843
50 2 2.318731 0.455144 5.764450
51 2 0.052443 -0.545902 4.664401
52 2 0.071606 -1.037832 2.357340
53 2 0.950780 -0.999840 0.262282
54 2 4.230520 0.892725 1.700513
55 2 3.315686 0.867322 3.802936
56 2 4.189408 0.494644 -0.636331
57 2 1.954353 -0.582687 -1.732537
58 2 1.937092 -1.022907 -4.058813
59 2 2.837940 -0.977076 -6.149707
60 2 6.114519 0.913756 -4.683936
61 2 5.190649 0.837849 -2.566461
62 2 6.070136 0.496302 -7.036792
63 2 3.802016 -0.516504 -8.147410
64 2 3.834298 -0.968407 -10.476568
65 2 4.839727 -1.032555 -12.559135
66 2 6.975969 -0.104175 -12.886748
67 2 8.065226 0.842598 -11.026432
68 2 7.077350 0.858352 -8.941302

 Velocities

1 1 0.000000 0.000000 0.000000
2 1 0.000000 0.000000 0.000000
3 1 0.000000 0.000000 0.000000
4 1 0.000000 0.000000 0.000000
5 1 0.000000 0.000000 0.000000
6 1 0.000000 0.000000 0.000000
7 1 0.000000 0.000000 0.000000
8 1 0.000000 0.000000 0.000000
9 1 0.000000 0.000000 0.000000
10 1 0.000000 0.000000 0.000000
11 1 0.000000 0.000000 0.000000
12 1 0.000000 0.000000 0.000000
13 1 0.000000 0.000000 0.000000
14 1 0.000000 0.000000 0.000000
15 1 0.000000 0.000000 0.000000
16 1 0.000000 0.000000 0.000000
17 1 0.000000 0.000000 0.000000
18 1 0.000000 0.000000 0.000000
19 1 0.000000 0.000000 0.000000
20 1 0.000000 0.000000 0.000000
21 1 0.000000 0.000000 0.000000
22 1 0.000000 0.000000 0.000000
23 1 0.000000 0.000000 0.000000
24 1 0.000000 0.000000 0.000000
25 1 0.000000 0.000000 0.000000
26 1 0.000000 0.000000 0.000000
27 1 0.000000 0.000000 0.000000
28 1 0.000000 0.000000 0.000000
29 1 0.000000 0.000000 0.000000
30 1 0.000000 0.000000 0.000000
31 1 0.000000 0.000000 0.000000
32 1 0.000000 0.000000 0.000000
33 1 0.000000 0.000000 0.000000
34 1 0.000000 0.000000 0.000000
35 1 0.000000 0.000000 0.000000
36 1 0.000000 0.000000 0.000000
37 1 0.000000 0.000000 0.000000
38 1 0.000000 0.000000 0.000000
39 2 0.000000 0.000000 0.000000
40 2 0.000000 0.000000 0.000000
41 2 0.000000 0.000000 0.000000
42 2 0.000000 0.000000 0.000000
43 2 0.000000 0.000000 0.000000
44 2 0.000000 0.000000 0.000000
45 2 0.000000 0.000000 0.000000
46 2 0.000000 0.000000 0.000000
47 2 0.000000 0.000000 0.000000
48 2 0.000000 0.000000 0.000000
49 2 0.000000 0.000000 0.000000
50 2 0.000000 0.000000 0.000000
51 2 0.000000 0.000000 0.000000
52 2 0.000000 0.000000 0.000000
53 2 0.000000 0.000000 0.000000
54 2 0.000000 0.000000 0.000000
55 2 0.000000 0.000000 0.000000
56 2 0.000000 0.000000 0.000000
57 2 0.000000 0.000000 0.000000
58 2 0.000000 0.000000 0.000000
59 2 0.000000 0.000000 0.000000
60 2 0.000000 0.000000 0.000000
61 2 0.000000 0.000000 0.000000
62 2 0.000000 0.000000 0.000000
63 2 0.000000 0.000000 0.000000
64 2 0.000000 0.000000 0.000000
65 2 0.000000 0.000000 0.000000
66 2 0.000000 0.000000 0.000000
67 2 0.000000 0.000000 0.000000
68 2 0.000000 0.000000 0.000000
