 Entering Gaussian System, Link 0=g16
 Initial command:
 /opt/frontend/QCh/Gaussian/16/Rev.A.03/AVX//g16/l1.exe "/scr/1912914.mgmt.skoltech.ru/Gau-31088.inp" -scrdir="/scr/1912914.mgmt.skoltech.ru/"
 Entering Link 1 = /opt/frontend/QCh/Gaussian/16/Rev.A.03/AVX//g16/l1.exe PID=     31089.
  
 Copyright (c) 1988,1990,1992,1993,1995,1998,2003,2009,2016,
            Gaussian, Inc.  All Rights Reserved.
  
 This is part of the Gaussian(R) 16 program.  It is based on
 the Gaussian(R) 09 system (copyright 2009, Gaussian, Inc.),
 the Gaussian(R) 03 system (copyright 2003, Gaussian, Inc.),
 the Gaussian(R) 98 system (copyright 1998, Gaussian, Inc.),
 the Gaussian(R) 94 system (copyright 1995, Gaussian, Inc.),
 the Gaussian 92(TM) system (copyright 1992, Gaussian, Inc.),
 the Gaussian 90(TM) system (copyright 1990, Gaussian, Inc.),
 the Gaussian 88(TM) system (copyright 1988, Gaussian, Inc.),
 the Gaussian 86(TM) system (copyright 1986, Carnegie Mellon
 University), and the Gaussian 82(TM) system (copyright 1983,
 Carnegie Mellon University). Gaussian is a federally registered
 trademark of Gaussian, Inc.
  
 This software contains proprietary and confidential information,
 including trade secrets, belonging to Gaussian, Inc.
  
 This software is provided under written license and may be
 used, copied, transmitted, or stored only in accord with that
 written license.
  
 The following legend is applicable only to US Government
 contracts under FAR:
  
                    RESTRICTED RIGHTS LEGEND
  
 Use, reproduction and disclosure by the US Government is
 subject to restrictions as set forth in subparagraphs (a)
 and (c) of the Commercial Computer Software - Restricted
 Rights clause in FAR 52.227-19.
  
 Gaussian, Inc.
 340 Quinnipiac St., Bldg. 40, Wallingford CT 06492
  
  
 ---------------------------------------------------------------
 Warning -- This program may not be used in any manner that
 competes with the business of Gaussian, Inc. or will provide
 assistance to any competitor of Gaussian, Inc.  The licensee
 of this program is prohibited from giving any competitor of
 Gaussian, Inc. access to this program.  By using this program,
 the user acknowledges that Gaussian, Inc. is engaged in the
 business of creating and licensing software in the field of
 computational chemistry and represents and warrants to the
 licensee that it is not a competitor of Gaussian, Inc. and that
 it will not use this program in any manner prohibited above.
 ---------------------------------------------------------------
  

 Cite this work as:
 Gaussian 16, Revision A.03,
 M. J. Frisch, G. W. Trucks, H. B. Schlegel, G. E. Scuseria, 
 M. A. Robb, J. R. Cheeseman, G. Scalmani, V. Barone, 
 G. A. Petersson, H. Nakatsuji, X. Li, M. Caricato, A. V. Marenich, 
 J. Bloino, B. G. Janesko, R. Gomperts, B. Mennucci, H. P. Hratchian, 
 J. V. Ortiz, A. F. Izmaylov, J. L. Sonnenberg, D. Williams-Young, 
 F. Ding, F. Lipparini, F. Egidi, J. Goings, B. Peng, A. Petrone, 
 T. Henderson, D. Ranasinghe, V. G. Zakrzewski, J. Gao, N. Rega, 
 G. Zheng, W. Liang, M. Hada, M. Ehara, K. Toyota, R. Fukuda, 
 J. Hasegawa, M. Ishida, T. Nakajima, Y. Honda, O. Kitao, H. Nakai, 
 T. Vreven, K. Throssell, J. A. Montgomery, Jr., J. E. Peralta, 
 F. Ogliaro, M. J. Bearpark, J. J. Heyd, E. N. Brothers, K. N. Kudin, 
 V. N. Staroverov, T. A. Keith, R. Kobayashi, J. Normand, 
 K. Raghavachari, A. P. Rendell, J. C. Burant, S. S. Iyengar, 
 J. Tomasi, M. Cossi, J. M. Millam, M. Klene, C. Adamo, R. Cammi, 
 J. W. Ochterski, R. L. Martin, K. Morokuma, O. Farkas, 
 J. B. Foresman, and D. J. Fox, Gaussian, Inc., Wallingford CT, 2016.
 
 ******************************************
 Gaussian 16:  ES64L-G16RevA.03 25-Dec-2016
                 2-Nov-2018 
 ******************************************
 %rwf=test.rwf
 %mem=10GB
 %nproc=2
 Will use up to    2 processors via shared memory.
 Default route: MaxDisk=60GB
 ------------------------------------
 # B3LYP 6-31g TD(singlets,nstates=4)
 ------------------------------------
 1/38=1,172=1/1;
 2/12=2,17=6,18=5,40=1/2;
 3/5=1,6=6,11=9,25=1,30=1,74=-5/1,2,3,8;
 4//1;
 5/5=2,38=5/2;
 8/6=1,10=2,108=4/1;
 9/41=4,42=1,48=1,70=2/14;
 6/7=2,8=2,9=2,10=2/1;
 99/5=1,9=1/99;
 -----------------------------------------
 HCOOH molecule: transition density matrix
 -----------------------------------------
 Symbolic Z-matrix:
 Charge =  0 Multiplicity = 1
 C                     0.        0.43286   0. 
 O                    -1.04629  -0.4532    0. 
 O                     1.18632   0.12016   0. 
 H                    -0.39243   1.45122   0. 
 H                    -0.72781  -1.384     0. 
 
                          Input orientation:                          
 ---------------------------------------------------------------------
 Center     Atomic      Atomic             Coordinates (Angstroms)
 Number     Number       Type             X           Y           Z
 ---------------------------------------------------------------------
      1          6           0        0.000000    0.432859    0.000000
      2          8           0       -1.046288   -0.453201    0.000000
      3          8           0        1.186318    0.120155    0.000000
      4          1           0       -0.392428    1.451216    0.000000
      5          1           0       -0.727805   -1.384004    0.000000
 ---------------------------------------------------------------------
                    Distance matrix (angstroms):
                    1          2          3          4          5
     1  C    0.000000
     2  O    1.371066   0.000000
     3  O    1.226839   2.305052   0.000000
     4  H    1.091353   2.013538   2.064985   0.000000
     5  H    1.957215   0.983781   2.434412   2.854987   0.000000
 Stoichiometry    CH2O2
 Framework group  CS[SG(CH2O2)]
 Deg. of freedom     7
 Full point group                 CS      NOp   2
 Largest Abelian subgroup         CS      NOp   2
 Largest concise Abelian subgroup C1      NOp   1
                         Standard orientation:                         
 ---------------------------------------------------------------------
 Center     Atomic      Atomic             Coordinates (Angstroms)
 Number     Number       Type             X           Y           Z
 ---------------------------------------------------------------------
      1          6           0        0.000000    0.432859    0.000000
      2          8           0       -1.046289   -0.453200   -0.000000
      3          8           0        1.186318    0.120154    0.000000
      4          1           0       -0.392427    1.451216   -0.000000
      5          1           0       -0.727806   -1.384003   -0.000000
 ---------------------------------------------------------------------
 Rotational constants (GHZ):          75.5208872          11.5361973          10.0075009
 Standard basis: 6-31G (6D, 7F)
 There are    25 symmetry adapted cartesian basis functions of A'  symmetry.
 There are     6 symmetry adapted cartesian basis functions of A"  symmetry.
 There are    25 symmetry adapted basis functions of A'  symmetry.
 There are     6 symmetry adapted basis functions of A"  symmetry.
    31 basis functions,    74 primitive gaussians,    31 cartesian basis functions
    12 alpha electrons       12 beta electrons
       nuclear repulsion energy        68.8344368002 Hartrees.
 NAtoms=    5 NActive=    5 NUniq=    5 SFac= 1.00D+00 NAtFMM=   60 NAOKFM=F Big=F
 Integral buffers will be    131072 words long.
 Regular integral format.
 Two-electron integral symmetry is turned on.
 One-electron integrals computed using PRISM.
 NBasis=    31 RedAO= T EigKep=  1.76D-02  NBF=    25     6
 NBsUse=    31 1.00D-06 EigRej= -1.00D+00 NBFU=    25     6
 ExpMin= 1.61D-01 ExpMax= 5.48D+03 ExpMxC= 8.25D+02 IAcc=3 IRadAn=         5 AccDes= 0.00D+00
 Harris functional with IExCor=  402 and IRadAn=       5 diagonalized for initial guess.
 HarFok:  IExCor=  402 AccDes= 0.00D+00 IRadAn=         5 IDoV= 1 UseB2=F ITyADJ=14
 ICtDFT=  3500011 ScaDFX=  1.000000  1.000000  1.000000  1.000000
 FoFCou: FMM=F IPFlag=           0 FMFlag=      100000 FMFlg1=           0
         NFxFlg=           0 DoJE=T BraDBF=F KetDBF=T FulRan=T
         wScrn=  0.000000 ICntrl=       500 IOpCl=  0 I1Cent=   200000004 NGrid=           0
         NMat0=    1 NMatS0=      1 NMatT0=    0 NMatD0=    1 NMtDS0=    0 NMtDT0=    0
 Petite list used in FoFCou.
 Initial guess orbital symmetries:
       Occupied  (A') (A') (A') (A') (A') (A') (A') (A') (A") (A')
                 (A") (A')
       Virtual   (A") (A') (A') (A') (A') (A") (A') (A') (A') (A')
                 (A') (A") (A') (A") (A') (A') (A') (A') (A')
 The electronic state of the initial guess is 1-A'.
 Keep R1 ints in memory in symmetry-blocked form, NReq=1849987.
 Requested convergence on RMS density matrix=1.00D-08 within 128 cycles.
 Requested convergence on MAX density matrix=1.00D-06.
 Requested convergence on             energy=1.00D-06.
 No special actions if energy rises.
 Integral accuracy reduced to 1.0D-05 until final iterations.
 Initial convergence to 1.0D-05 achieved.  Increase integral accuracy.
 SCF Done:  E(RB3LYP) =  -189.686346250     A.U. after   13 cycles
            NFock= 13  Conv=0.37D-08     -V/T= 2.0056
 DoSCS=F DFT=T ScalE2(SS,OS)=  1.000000  1.000000
 ExpMin= 1.61D-01 ExpMax= 5.48D+03 ExpMxC= 8.25D+02 IAcc=3 IRadAn=         5 AccDes= 0.00D+00
 HarFok:  IExCor=  205 AccDes= 0.00D+00 IRadAn=         5 IDoV=-2 UseB2=F ITyADJ=14
 ICtDFT= 12500011 ScaDFX=  1.000000  1.000000  1.000000  1.000000
 Range of M.O.s used for correlation:     4    31
 NBasis=    31 NAE=    12 NBE=    12 NFC=     3 NFV=     0
 NROrb=     28 NOA=     9 NOB=     9 NVA=    19 NVB=    19
 Keep R1, R2, and R3 ints in memory in symmetry-blocked form, NReq=2224033.
 Orbital symmetries:
       Occupied  (A') (A') (A') (A') (A') (A') (A') (A') (A") (A')
                 (A") (A')
       Virtual   (A") (A') (A') (A') (A') (A") (A') (A') (A') (A')
                 (A') (A") (A') (A") (A') (A') (A') (A') (A')
    16 initial guesses have been made.
 Convergence on wavefunction:    0.001000000000000
 Iteration     1 Dimension    16 NMult     0 NNew     16
 CISAX will form    16 AO SS matrices at one time.
 New state      2 was old state      3
 New state      3 was old state      4
 New state      4 was old state      5
 Iteration     2 Dimension    24 NMult    16 NNew      8
 Iteration     3 Dimension    32 NMult    24 NNew      8
 No map to state      4
 Iteration     4 Dimension    40 NMult    32 NNew      8
 Iteration     5 Dimension    44 NMult    40 NNew      4
 Iteration     6 Dimension    46 NMult    44 NNew      2
 ***********************************************************************
 Excited states from <AA,BB:AA,BB> singles matrix:
 ***********************************************************************
 
 Ground to excited state transition densities written to RWF  633
 Ground to excited state transition electric dipole moments (Au):
       state          X           Y           Z        Dip. S.      Osc.
         1         0.0000     -0.0000      0.0874      0.0076      0.0010
         2        -0.4371      0.1144     -0.0000      0.2041      0.0398
         3         0.0000      0.0000     -0.0587      0.0034      0.0007
         4        -0.6884     -0.6040      0.0000      0.8387      0.1842
 Ground to excited state transition velocity dipole moments (Au):
       state          X           Y           Z        Dip. S.      Osc.
         1        -0.0000     -0.0000     -0.0114      0.0001      0.0004
         2         0.0720     -0.0325      0.0000      0.0062      0.0142
         3        -0.0000     -0.0000      0.0171      0.0003      0.0006
         4         0.1778      0.1590     -0.0000      0.0569      0.1151
 Ground to excited state transition magnetic dipole moments (Au):
       state          X           Y           Z
         1        -0.8993      0.2735     -0.0000
         2        -0.0000     -0.0000     -0.2856
         3         0.4569      1.3052      0.0000
         4         0.0000     -0.0000      0.0010
 Ground to excited state transition velocity quadrupole moments (Au):
       state          XX          YY          ZZ          XY          XZ          YZ
         1         0.0000      0.0000      0.0000     -0.0000     -0.0345     -0.0421
         2         0.1174     -0.0330      0.0130     -0.0185     -0.0000     -0.0000
         3        -0.0000      0.0000     -0.0000      0.0000     -0.3190     -0.0103
         4         0.0190     -0.0651     -0.0112     -0.2174      0.0000      0.0000
 <0|del|b> * <b|rxdel|0> + <0|del|b> * <b|delr+rdel|0>
 Rotatory Strengths (R) in cgs (10**-40 erg-esu-cm/Gauss)
       state          XX          YY          ZZ    R(velocity)    E-M Angle
         1         0.0000      0.0000      0.0000      0.0000       90.00
         2        -0.0000     -0.0000      0.0000     -0.0000       90.00
         3        -0.0000     -0.0000     -0.0000     -0.0000       90.00
         4        -0.0000      0.0000      0.0000      0.0000       90.00
 1/2[<0|r|b>*<b|rxdel|0> + (<0|rxdel|b>*<b|r|0>)*]
 Rotatory Strengths (R) in cgs (10**-40 erg-esu-cm/Gauss)
       state          XX          YY          ZZ     R(length)
         1         0.0000      0.0000      0.0000      0.0000
         2        -0.0000      0.0000     -0.0000     -0.0000
         3        -0.0000     -0.0000      0.0000     -0.0000
         4         0.0000     -0.0000     -0.0000      0.0000
  1/2[<0|del|b>*<b|r|0> + (<0|r|b>*<b|del|0>)*] (Au)
       state          X           Y           Z        Dip. S.   Osc.(frdel)
         1        -0.0000      0.0000     -0.0010      0.0010      0.0007
         2        -0.0315     -0.0037     -0.0000      0.0352      0.0234
         3        -0.0000     -0.0000     -0.0010      0.0010      0.0007
         4        -0.1224     -0.0960     -0.0000      0.2184      0.1456

 Excitation energies and oscillator strengths:
 
 Excited State   1:      Singlet-A"     5.4305 eV  228.31 nm  f=0.0010  <S**2>=0.000
      12 -> 13         0.70680
 This state for optimization and/or second-order correction.
 Total Energy, E(TD-HF/TD-DFT) =  -189.486779057    
 Copying the excited state density for this state as the 1-particle RhoCI density.
 
 Excited State   2:      Singlet-A'     7.9495 eV  155.96 nm  f=0.0398  <S**2>=0.000
      11 -> 13         0.51536
      12 -> 14        -0.46729
 
 Excited State   3:      Singlet-A"     8.5543 eV  144.94 nm  f=0.0007  <S**2>=0.000
      10 -> 13         0.70154
 
 Excited State   4:      Singlet-A'     8.9658 eV  138.29 nm  f=0.1842  <S**2>=0.000
      11 -> 13         0.43559
      12 -> 14         0.52298
      12 -> 16        -0.14982
 SavETr:  write IOETrn=   770 NScale= 10 NData=  16 NLR=1 NState=    4 LETran=      82.

 **********************************************************************

            Population analysis using the SCF density.

 **********************************************************************

 Orbital symmetries:
       Occupied  (A') (A') (A') (A') (A') (A') (A') (A') (A") (A')
                 (A") (A')
       Virtual   (A") (A') (A') (A') (A') (A") (A') (A') (A') (A')
                 (A') (A") (A') (A") (A') (A') (A') (A') (A')
 The electronic state is 1-A'.
 Alpha  occ. eigenvalues --  -19.21212 -19.16796 -10.34301  -1.12911  -1.04682
 Alpha  occ. eigenvalues --   -0.68124  -0.53614  -0.48377  -0.45365  -0.40034
 Alpha  occ. eigenvalues --   -0.33431  -0.29785
 Alpha virt. eigenvalues --   -0.02415   0.05190   0.12479   0.23089   0.25663
 Alpha virt. eigenvalues --    0.50463   0.54537   0.65761   0.70497   0.78657
 Alpha virt. eigenvalues --    0.85844   0.89543   0.92580   0.98298   1.00315
 Alpha virt. eigenvalues --    1.08924   1.23237   1.62595   1.71348
          Condensed to atoms (all electrons):
               1          2          3          4          5
     1  C    4.674703   0.152525   0.471111   0.359317  -0.008768
     2  O    0.152525   8.336147  -0.090951  -0.090978   0.216432
     3  O    0.471111  -0.090951   8.054688  -0.059413   0.006451
     4  H    0.359317  -0.090978  -0.059413   0.613470   0.008706
     5  H   -0.008768   0.216432   0.006451   0.008706   0.392126
 Mulliken charges:
               1
     1  C    0.351111
     2  O   -0.523176
     3  O   -0.381886
     4  H    0.168898
     5  H    0.385053
 Sum of Mulliken charges =   0.00000
 Mulliken charges with hydrogens summed into heavy atoms:
               1
     1  C    0.520009
     2  O   -0.138123
     3  O   -0.381886
 Electronic spatial extent (au):  <R**2>=            137.2995
 Charge=              0.0000 electrons
 Dipole moment (field-independent basis, Debye):
    X=             -1.3418    Y=             -0.4725    Z=             -0.0000  Tot=              1.4226
 Quadrupole moment (field-independent basis, Debye-Ang):
   XX=            -22.9957   YY=            -12.2672   ZZ=            -16.8193
   XY=              0.1127   XZ=             -0.0000   YZ=             -0.0000
 Traceless Quadrupole moment (field-independent basis, Debye-Ang):
   XX=             -5.6350   YY=              5.0936   ZZ=              0.5414
   XY=              0.1127   XZ=             -0.0000   YZ=             -0.0000
 Octapole moment (field-independent basis, Debye-Ang**2):
  XXX=             -0.7979  YYY=             -5.4500  ZZZ=              0.0000  XYY=             -3.3798
  XXY=             -0.9898  XXZ=             -0.0000  XZZ=              0.3585  YZZ=             -0.5857
  YYZ=             -0.0000  XYZ=             -0.0000
 Hexadecapole moment (field-independent basis, Debye-Ang**3):
 XXXX=           -108.7040 YYYY=            -28.8784 ZZZZ=            -12.9745 XXXY=            -11.7806
 XXXZ=             -0.0000 YYYX=             -7.0275 YYYZ=             -0.0000 ZZZX=             -0.0000
 ZZZY=             -0.0000 XXYY=            -21.4356 XXZZ=            -18.7552 YYZZ=             -8.8996
 XXYZ=             -0.0000 YYXZ=             -0.0000 ZZXY=             -3.4752
 N-N= 6.883443680016D+01 E-N=-5.839631809187D+02  KE= 1.886304847872D+02
 Symmetry A'   KE= 1.803512672572D+02
 Symmetry A"   KE= 8.279217529913D+00
 1\1\GINC-NODE13\SP\RB3LYP TD-FC\6-31G\C1H2O2\ROOT\02-Nov-2018\0\\# B3L
 YP 6-31g TD(singlets,nstates=4)\\HCOOH molecule: transition density ma
 trix\\0,1\C,0,0.,0.432859,0.\O,0,-1.046288,-0.453201,0.\O,0,1.186318,0
 .120155,0.\H,0,-0.392428,1.451216,0.\H,0,-0.727805,-1.384004,0.\\Versi
 on=ES64L-G16RevA.03\State=1-A'\HF=-189.6863462\RMSD=3.657e-09\PG=CS [S
 G(C1H2O2)]\\@


 THEREFORE SHALL EVIL COME UPON THEE...
 THOU SHALT NOT KNOW FROM WHENCE IT RISETH...
 AND MISCHIEF SHALL FALL UPON THEE...
 THOU SHALT NOT BE ABLE TO PUT IT OFF...
 AND DESOLATION SHALL COME UPON THEE SUDDENLY...
 WHICH THOU SHALT NOT KNOW...

                                         ISAIAH 47.11
 Job cpu time:       0 days  0 hours  0 minutes 11.6 seconds.
 Elapsed time:       0 days  0 hours  0 minutes  5.9 seconds.
 File lengths (MBytes):  RWF=     89 Int=      0 D2E=      0 Chk=      1 Scr=      1
 Normal termination of Gaussian 16 at Fri Nov  2 01:41:53 2018.
